44257986
  -OEChem-11222001382D

 86 91  0     1  0  0  0  0  0999 V2000
    6.9026    4.7819    0.0000 O   0  0  0  0  0  0  0  0  0  0  0  0
    9.4987    4.2719    0.0000 O   0  0  0  0  0  0  0  0  0  0  0  0
    9.5064    6.2719    0.0000 O   0  0  0  0  0  0  0  0  0  0  0  0
    7.7782    7.2785    0.0000 O   0  0  0  0  0  0  0  0  0  0  0  0
    5.1350   -4.2873    0.0000 O   0  0  0  0  0  0  0  0  0  0  0  0
    6.0462    7.2852    0.0000 O   0  0  0  0  0  0  0  0  0  0  0  0
    6.8671   -4.2873    0.0000 O   0  0  0  0  0  0  0  0  0  0  0  0
    5.1350   -7.2873    0.0000 O   0  0  0  0  0  0  0  0  0  0  0  0
    3.4030   -6.2873    0.0000 O   0  0  0  0  0  0  0  0  0  0  0  0
    6.8671   -6.2873    0.0000 O   0  0  0  0  0  0  0  0  0  0  0  0
    6.0308    3.2852    0.0000 O   0  0  0  0  0  0  0  0  0  0  0  0
    9.4948    3.2719    0.0000 O   0  0  0  0  0  0  0  0  0  0  0  0
    7.7671    0.2370    0.0000 O   0  0  0  0  0  0  0  0  0  0  0  0
    2.5369   -4.7873    0.0000 O   0  0  0  0  0  0  0  0  0  0  0  0
   10.3705    5.7685    0.0000 O   0  0  0  0  0  0  0  0  0  0  0  0
    5.1208    1.7919    0.0000 O   0  0  0  0  0  0  0  0  0  0  0  0
    5.1350   -3.2873    0.0000 O   0  0  0  0  0  0  0  0  0  0  0  0
   13.8230    2.7552    0.0000 O   0  0  0  0  0  0  0  0  0  0  0  0
    8.6346    4.7752    0.0000 C   0  0  3  0  0  0  0  0  0  0  0  0
    8.6384    5.7752    0.0000 C   0  0  2  0  0  0  0  0  0  0  0  0
    7.7666    4.2786    0.0000 C   0  0  2  0  0  0  0  0  0  0  0  0
    7.7744    6.2785    0.0000 C   0  0  1  0  0  0  0  0  0  0  0  0
    6.9064    5.7819    0.0000 C   0  0  3  0  0  0  0  0  0  0  0  0
    7.7628    3.2786    0.0000 C   0  0  0  0  0  0  0  0  0  0  0  0
    6.0423    6.2852    0.0000 C   0  0  0  0  0  0  0  0  0  0  0  0
    5.1350   -6.2873    0.0000 C   0  0  1  0  0  0  0  0  0  0  0  0
    4.2690   -5.7873    0.0000 C   0  0  1  0  0  0  0  0  0  0  0  0
    6.0010   -5.7873    0.0000 C   0  0  3  0  0  0  0  0  0  0  0  0
    4.2690   -4.7873    0.0000 C   0  0  3  0  0  0  0  0  0  0  0  0
    6.0010   -4.7873    0.0000 C   0  0  1  0  0  0  0  0  0  0  0  0
    6.8948    2.7819    0.0000 C   0  0  0  0  0  0  0  0  0  0  0  0
    8.6269    2.7752    0.0000 C   0  0  0  0  0  0  0  0  0  0  0  0
    3.4030   -4.2873    0.0000 C   0  0  0  0  0  0  0  0  0  0  0  0
    6.8910    1.7819    0.0000 C   0  0  0  0  0  0  0  0  0  0  0  0
    8.6230    1.7752    0.0000 C   0  0  0  0  0  0  0  0  0  0  0  0
    7.7551    1.2786    0.0000 C   0  0  0  0  0  0  0  0  0  0  0  0
   10.3666    4.7685    0.0000 C   0  0  0  0  0  0  0  0  0  0  0  0
    5.9790    1.2786    0.0000 C   0  0  0  0  0  0  0  0  0  0  0  0
    6.8671   -3.2873    0.0000 C   0  0  0  0  0  0  0  0  0  0  0  0
    6.8671   -0.2873    0.0000 C   0  0  0  0  0  0  0  0  0  0  0  0
   11.2307    4.2652    0.0000 C   0  0  0  0  0  0  0  0  0  0  0  0
    5.9670    0.2370    0.0000 C   0  0  0  0  0  0  0  0  0  0  0  0
    6.8671   -1.2873    0.0000 C   0  0  0  0  0  0  0  0  0  0  0  0
    6.0010   -2.7873    0.0000 C   0  0  0  0  0  0  0  0  0  0  0  0
    7.7331   -2.7873    0.0000 C   0  0  0  0  0  0  0  0  0  0  0  0
    6.0010   -1.7873    0.0000 C   0  0  0  0  0  0  0  0  0  0  0  0
    7.7331   -1.7873    0.0000 C   0  0  0  0  0  0  0  0  0  0  0  0
   12.0987    4.7619    0.0000 C   0  0  0  0  0  0  0  0  0  0  0  0
   11.2269    3.2652    0.0000 C   0  0  0  0  0  0  0  0  0  0  0  0
   12.9628    4.2585    0.0000 C   0  0  0  0  0  0  0  0  0  0  0  0
   12.0910    2.7619    0.0000 C   0  0  0  0  0  0  0  0  0  0  0  0
   12.9589    3.2585    0.0000 C   0  0  0  0  0  0  0  0  0  0  0  0
    9.1727    5.0831    0.0000 H   0  0  0  0  0  0  0  0  0  0  0  0
    8.6408    6.3952    0.0000 H   0  0  0  0  0  0  0  0  0  0  0  0
    8.5011    3.8507    0.0000 H   0  0  0  0  0  0  0  0  0  0  0  0
    7.2386    6.5906    0.0000 H   0  0  0  0  0  0  0  0  0  0  0  0
    6.3683    5.4740    0.0000 H   0  0  0  0  0  0  0  0  0  0  0  0
    5.4322    6.3952    0.0000 H   0  0  0  0  0  0  0  0  0  0  0  0
    5.8280    5.7034    0.0000 H   0  0  0  0  0  0  0  0  0  0  0  0
    4.5981   -6.5973    0.0000 H   0  0  0  0  0  0  0  0  0  0  0  0
    4.2690   -6.4073    0.0000 H   0  0  0  0  0  0  0  0  0  0  0  0
    6.0010   -6.4073    0.0000 H   0  0  0  0  0  0  0  0  0  0  0  0
    4.2690   -4.1673    0.0000 H   0  0  0  0  0  0  0  0  0  0  0  0
    6.0010   -4.1673    0.0000 H   0  0  0  0  0  0  0  0  0  0  0  0
    9.5088    6.8919    0.0000 H   0  0  0  0  0  0  0  0  0  0  0  0
    8.3163    7.5865    0.0000 H   0  0  0  0  0  0  0  0  0  0  0  0
    3.8015   -3.8123    0.0000 H   0  0  0  0  0  0  0  0  0  0  0  0
    3.0044   -3.8123    0.0000 H   0  0  0  0  0  0  0  0  0  0  0  0
    9.1588    1.4632    0.0000 H   0  0  0  0  0  0  0  0  0  0  0  0
    5.5104    7.5973    0.0000 H   0  0  0  0  0  0  0  0  0  0  0  0
    5.6720   -7.5973    0.0000 H   0  0  0  0  0  0  0  0  0  0  0  0
    3.4030   -6.9073    0.0000 H   0  0  0  0  0  0  0  0  0  0  0  0
    7.4040   -5.9773    0.0000 H   0  0  0  0  0  0  0  0  0  0  0  0
    5.4926    2.9773    0.0000 H   0  0  0  0  0  0  0  0  0  0  0  0
   10.0306    2.9598    0.0000 H   0  0  0  0  0  0  0  0  0  0  0  0
    5.4277   -0.0688    0.0000 H   0  0  0  0  0  0  0  0  0  0  0  0
    2.0000   -4.4773    0.0000 H   0  0  0  0  0  0  0  0  0  0  0  0
    8.2700   -3.0973    0.0000 H   0  0  0  0  0  0  0  0  0  0  0  0
    5.4641   -1.4773    0.0000 H   0  0  0  0  0  0  0  0  0  0  0  0
    8.2700   -1.4773    0.0000 H   0  0  0  0  0  0  0  0  0  0  0  0
   12.1011    5.3818    0.0000 H   0  0  0  0  0  0  0  0  0  0  0  0
   10.6887    2.9573    0.0000 H   0  0  0  0  0  0  0  0  0  0  0  0
   13.5009    4.5664    0.0000 H   0  0  0  0  0  0  0  0  0  0  0  0
   12.0886    2.1419    0.0000 H   0  0  0  0  0  0  0  0  0  0  0  0
    4.5981   -2.9773    0.0000 H   0  0  0  0  0  0  0  0  0  0  0  0
   14.3611    3.0631    0.0000 H   0  0  0  0  0  0  0  0  0  0  0  0
  1 21  1  0  0  0  0
  1 23  1  0  0  0  0
  2 19  1  0  0  0  0
  2 37  1  0  0  0  0
 20  3  1  6  0  0  0
  3 65  1  0  0  0  0
 22  4  1  1  0  0  0
  4 66  1  0  0  0  0
  5 29  1  0  0  0  0
  5 30  1  0  0  0  0
  6 25  1  0  0  0  0
  6 70  1  0  0  0  0
 30  7  1  1  0  0  0
  7 39  1  0  0  0  0
 26  8  1  1  0  0  0
  8 71  1  0  0  0  0
 27  9  1  6  0  0  0
  9 72  1  0  0  0  0
 10 28  1  0  0  0  0
 10 73  1  0  0  0  0
 11 31  1  0  0  0  0
 11 74  1  0  0  0  0
 12 32  1  0  0  0  0
 12 75  1  0  0  0  0
 13 36  1  0  0  0  0
 13 40  1  0  0  0  0
 14 33  1  0  0  0  0
 14 77  1  0  0  0  0
 15 37  2  0  0  0  0
 16 38  2  0  0  0  0
 17 44  1  0  0  0  0
 17 85  1  0  0  0  0
 18 52  1  0  0  0  0
 18 86  1  0  0  0  0
 19 20  1  0  0  0  0
 19 21  1  0  0  0  0
 19 53  1  0  0  0  0
 20 22  1  0  0  0  0
 20 54  1  0  0  0  0
 21 24  1  0  0  0  0
 21 55  1  1  0  0  0
 22 23  1  0  0  0  0
 22 56  1  0  0  0  0
 23 25  1  0  0  0  0
 23 57  1  0  0  0  0
 24 31  2  0  0  0  0
 24 32  1  0  0  0  0
 25 58  1  0  0  0  0
 25 59  1  0  0  0  0
 26 27  1  0  0  0  0
 26 28  1  0  0  0  0
 26 60  1  0  0  0  0
 27 29  1  0  0  0  0
 27 61  1  0  0  0  0
 28 30  1  0  0  0  0
 28 62  1  0  0  0  0
 29 33  1  0  0  0  0
 29 63  1  0  0  0  0
 30 64  1  0  0  0  0
 31 34  1  0  0  0  0
 32 35  2  0  0  0  0
 33 67  1  0  0  0  0
 33 68  1  0  0  0  0
 34 36  2  0  0  0  0
 34 38  1  0  0  0  0
 35 36  1  0  0  0  0
 35 69  1  0  0  0  0
 37 41  1  0  0  0  0
 38 42  1  0  0  0  0
 39 44  2  0  0  0  0
 39 45  1  0  0  0  0
 40 42  2  0  0  0  0
 40 43  1  0  0  0  0
 41 48  2  0  0  0  0
 41 49  1  0  0  0  0
 42 76  1  0  0  0  0
 43 46  2  0  0  0  0
 43 47  1  0  0  0  0
 44 46  1  0  0  0  0
 45 47  2  0  0  0  0
 45 78  1  0  0  0  0
 46 79  1  0  0  0  0
 47 80  1  0  0  0  0
 48 50  1  0  0  0  0
 48 81  1  0  0  0  0
 49 51  2  0  0  0  0
 49 82  1  0  0  0  0
 50 52  2  0  0  0  0
 50 83  1  0  0  0  0
 51 52  1  0  0  0  0
 51 84  1  0  0  0  0
M  END
> <PUBCHEM_COMPOUND_CID>
44257986

> <PUBCHEM_COMPOUND_CANONICALIZED>
1

> <PUBCHEM_CACTVS_COMPLEXITY>
1270

> <PUBCHEM_CACTVS_HBOND_ACCEPTOR>
18

> <PUBCHEM_CACTVS_HBOND_DONOR>
11

> <PUBCHEM_CACTVS_ROTATABLE_BOND>
9

> <PUBCHEM_CACTVS_SUBSKEYS>
AAADcfB8PgAAAAAAAAAAAAAAAAAAAAAAAAA0aMECAAAAAACBUAAAGgAACAAADBSwmAMwDoAABgCIAqDSCAACCAAkIAAIiAEGiMgdNzaGNRqieWOl4BUPuYfI7PzOIAADCAAIQABAAAYQABCAAAAAAAAAAA==

> <PUBCHEM_IUPAC_OPENEYE_NAME>
[(2S,4S,5S)-2-[5,7-dihydroxy-2-[3-hydroxy-4-[(2S,4S,5S)-3,4,5-trihydroxy-6-(hydroxymethyl)tetrahydropyran-2-yl]oxy-phenyl]-4-oxo-chromen-6-yl]-4,5-dihydroxy-6-(hydroxymethyl)tetrahydropyran-3-yl] 4-hydroxybenzoate

> <PUBCHEM_IUPAC_CAS_NAME>
4-hydroxybenzoic acid [(2S,4S,5S)-2-[5,7-dihydroxy-2-[3-hydroxy-4-[[(2S,4S,5S)-3,4,5-trihydroxy-6-(hydroxymethyl)-2-oxanyl]oxy]phenyl]-4-oxo-1-benzopyran-6-yl]-4,5-dihydroxy-6-(hydroxymethyl)-3-oxanyl] ester

> <PUBCHEM_IUPAC_NAME_MARKUP>
[(2<I>S</I>,4<I>S</I>,5<I>S</I>)-2-[5,7-dihydroxy-2-[3-hydroxy-4-[(2<I>S</I>,4<I>S</I>,5<I>S</I>)-3,4,5-trihydroxy-6-(hydroxymethyl)oxan-2-yl]oxyphenyl]-4-oxochromen-6-yl]-4,5-dihydroxy-6-(hydroxymethyl)oxan-3-yl] 4-hydroxybenzoate

> <PUBCHEM_IUPAC_NAME>
[(2S,4S,5S)-2-[5,7-dihydroxy-2-[3-hydroxy-4-[(2S,4S,5S)-3,4,5-trihydroxy-6-(hydroxymethyl)oxan-2-yl]oxyphenyl]-4-oxochromen-6-yl]-4,5-dihydroxy-6-(hydroxymethyl)oxan-3-yl] 4-hydroxybenzoate

> <PUBCHEM_IUPAC_SYSTEMATIC_NAME>
[(2S,4S,5S)-6-(hydroxymethyl)-2-[2-[4-[(2S,4S,5S)-6-(hydroxymethyl)-3,4,5-tris(oxidanyl)oxan-2-yl]oxy-3-oxidanyl-phenyl]-5,7-bis(oxidanyl)-4-oxidanylidene-chromen-6-yl]-4,5-bis(oxidanyl)oxan-3-yl] 4-oxidanylbenzoate

> <PUBCHEM_IUPAC_TRADITIONAL_NAME>
4-hydroxybenzoic acid [(2S,4S,5S)-2-[5,7-dihydroxy-2-[3-hydroxy-4-[(2S,4S,5S)-3,4,5-trihydroxy-6-methylol-tetrahydropyran-2-yl]oxy-phenyl]-4-keto-chromen-6-yl]-4,5-dihydroxy-6-methylol-tetrahydropyran-3-yl] ester

> <PUBCHEM_IUPAC_INCHI>
InChI=1S/C34H34O18/c35-10-21-26(42)29(45)32(52-33(47)12-1-4-14(37)5-2-12)31(49-21)24-17(40)9-20-23(27(24)43)16(39)8-19(48-20)13-3-6-18(15(38)7-13)50-34-30(46)28(44)25(41)22(11-36)51-34/h1-9,21-22,25-26,28-32,34-38,40-46H,10-11H2/t21?,22?,25-,26-,28+,29+,30?,31+,32?,34-/m1/s1

> <PUBCHEM_IUPAC_INCHIKEY>
KTLHNQIKDFYBAF-HPTCFRCWSA-N

> <PUBCHEM_XLOGP3_AA>
-0.1

> <PUBCHEM_EXACT_MASS>
730.174514

> <PUBCHEM_MOLECULAR_FORMULA>
C34H34O18

> <PUBCHEM_MOLECULAR_WEIGHT>
730.6

> <PUBCHEM_OPENEYE_CAN_SMILES>
C1=CC(=CC=C1C(=O)OC2C(C(C(OC2C3=C(C4=C(C=C3O)OC(=CC4=O)C5=CC(=C(C=C5)OC6C(C(C(C(O6)CO)O)O)O)O)O)CO)O)O)O

> <PUBCHEM_OPENEYE_ISO_SMILES>
C1=CC(=CC=C1C(=O)OC2[C@H]([C@@H](C(O[C@H]2C3=C(C4=C(C=C3O)OC(=CC4=O)C5=CC(=C(C=C5)O[C@H]6C([C@H]([C@@H](C(O6)CO)O)O)O)O)O)CO)O)O)O

> <PUBCHEM_CACTVS_TPSA>
303

> <PUBCHEM_MONOISOTOPIC_WEIGHT>
730.174514

> <PUBCHEM_TOTAL_CHARGE>
0

> <PUBCHEM_HEAVY_ATOM_COUNT>
52

> <PUBCHEM_ATOM_DEF_STEREO_COUNT>
6

> <PUBCHEM_ATOM_UDEF_STEREO_COUNT>
4

> <PUBCHEM_BOND_DEF_STEREO_COUNT>
0

> <PUBCHEM_BOND_UDEF_STEREO_COUNT>
0

> <PUBCHEM_ISOTOPIC_ATOM_COUNT>
0

> <PUBCHEM_COMPONENT_COUNT>
1

> <PUBCHEM_CACTVS_TAUTO_COUNT>
-1

> <PUBCHEM_COORDINATE_TYPE>
1
5
255

> <PUBCHEM_BONDANNOTATIONS>
28  10  3
13  36  8
13  40  8
19  2  3
21  55  5
23  25  3
24  31  8
24  32  8
29  33  3
20  3  6
31  34  8
32  35  8
34  36  8
34  38  8
35  36  8
38  42  8
39  44  8
39  45  8
22  4  5
40  42  8
41  48  8
41  49  8
43  46  8
43  47  8
44  46  8
45  47  8
48  50  8
49  51  8
50  52  8
51  52  8
30  7  5
26  8  5
27  9  6

$$$$
