135403795
  -OEChem-09152013142D

 95102  0     1  0  0  0  0  0999 V2000
    9.6687    1.0018    0.0000 O   0  0  0  0  0  0  0  0  0  0  0  0
    7.6432    1.0909    0.0000 O   0  0  0  0  0  0  0  0  0  0  0  0
   12.2724    0.5319    0.0000 O   0  0  0  0  0  0  0  0  0  0  0  0
    5.9237   -0.9199    0.0000 O   0  0  0  0  0  0  0  0  0  0  0  0
   10.5405   -3.5573    0.0000 O   0  0  0  0  0  0  0  0  0  0  0  0
   11.3874    4.0533    0.0000 O   0  0  0  0  0  0  0  0  0  0  0  0
   12.3222   -2.5469    0.0000 O   0  0  0  0  0  0  0  0  0  0  0  0
    4.3819    2.3675    0.0000 O   0  0  0  0  0  0  0  0  0  0  0  0
    7.2779   -3.2055    0.0000 O   0  0  0  0  0  0  0  0  0  0  0  0
    9.0988   -3.6212    0.0000 O   0  0  0  0  0  0  0  0  0  0  0  0
    7.8477    4.0260    0.0000 O   0  0  0  0  0  0  0  0  0  0  0  0
    7.1409    4.5852    0.0000 O   0  0  0  0  0  0  0  0  0  0  0  0
   13.1210    2.0418    0.0000 O   0  0  0  0  0  0  0  0  0  0  0  0
    4.3114   -0.2871    0.0000 O   0  0  0  0  0  0  0  0  0  0  0  0
   16.5965    1.0819    0.0000 O   0  0  0  0  0  0  0  0  0  0  0  0
   14.8992   -1.9379    0.0000 O   0  0  0  0  0  0  0  0  0  0  0  0
    5.4512   -4.4943    0.0000 O   0  0  0  0  0  0  0  0  0  0  0  0
    2.2265   -3.2287    0.0000 O   0  0  0  0  0  0  0  0  0  0  0  0
   16.6196   -0.9179    0.0000 O   0  0  0  0  0  0  0  0  0  0  0  0
    3.4735   -4.7924    0.0000 O   0  0  0  0  0  0  0  0  0  0  0  0
   10.5405    0.5119    0.0000 C   0  0  1  0  0  0  0  0  0  0  0  0
   11.4007    1.0218    0.0000 C   0  0  1  0  0  0  0  0  0  0  0  0
    7.2779    0.1601    0.0000 C   0  0  1  0  0  0  0  0  0  0  0  0
    6.2890    0.0110    0.0000 C   0  0  1  0  0  0  0  0  0  0  0  0
   10.5520   -0.4881    0.0000 C   0  0  0  0  0  0  0  0  0  0  0  0
   11.3891    2.0218    0.0000 C   0  0  0  0  0  0  0  0  0  0  0  0
    9.6581   -1.0227    0.0000 C   0  0  0  0  0  0  0  0  0  0  0  0
    5.6655    0.7928    0.0000 C   0  0  0  0  0  0  0  0  0  0  0  0
    7.9014   -0.6218    0.0000 C   0  0  0  0  0  0  0  0  0  0  0  0
   10.5174    2.5117    0.0000 C   0  0  0  0  0  0  0  0  0  0  0  0
    8.8763   -0.3993    0.0000 C   0  0  0  0  0  0  0  0  0  0  0  0
    6.0309    1.7237    0.0000 C   0  0  0  0  0  0  0  0  0  0  0  0
    9.6572    2.0017    0.0000 C   0  0  0  0  0  0  0  0  0  0  0  0
    9.6581   -2.0227    0.0000 C   0  0  0  0  0  0  0  0  0  0  0  0
    7.0197    1.8728    0.0000 C   0  0  0  0  0  0  0  0  0  0  0  0
   11.4581   -1.0019    0.0000 C   0  0  0  0  0  0  0  0  0  0  0  0
    7.4675   -1.5227    0.0000 C   0  0  0  0  0  0  0  0  0  0  0  0
   10.5520   -2.5574    0.0000 C   0  0  0  0  0  0  0  0  0  0  0  0
   10.5214    3.5533    0.0000 C   0  0  0  0  0  0  0  0  0  0  0  0
   11.4581   -2.0436    0.0000 C   0  0  0  0  0  0  0  0  0  0  0  0
    8.8763   -2.6462    0.0000 C   0  0  0  0  0  0  0  0  0  0  0  0
    5.3690    2.5280    0.0000 C   0  0  0  0  0  0  0  0  0  0  0  0
    8.7414    2.4980    0.0000 C   0  0  0  0  0  0  0  0  0  0  0  0
    7.9014   -2.4237    0.0000 C   0  0  0  0  0  0  0  0  0  0  0  0
    7.4152    2.8364    0.0000 C   0  0  0  0  0  0  0  0  0  0  0  0
    9.6173    4.0707    0.0000 C   0  0  0  0  0  0  0  0  0  0  0  0
    8.7213    3.5395    0.0000 C   0  0  0  0  0  0  0  0  0  0  0  0
    5.7420    3.5005    0.0000 C   0  0  0  0  0  0  0  0  0  0  0  0
    6.7720    3.6558    0.0000 C   0  0  0  0  0  0  0  0  0  0  0  0
   13.1326    1.0419    0.0000 C   0  0  0  0  0  0  0  0  0  0  0  0
    4.9348   -1.0689    0.0000 C   0  0  0  0  0  0  0  0  0  0  0  0
   14.0044    0.5519    0.0000 C   0  0  0  0  0  0  0  0  0  0  0  0
    4.5695   -1.9998    0.0000 C   0  0  0  0  0  0  0  0  0  0  0  0
   14.0159   -0.4480    0.0000 C   0  0  0  0  0  0  0  0  0  0  0  0
   14.8645    1.0619    0.0000 C   0  0  0  0  0  0  0  0  0  0  0  0
    3.5807   -2.1488    0.0000 C   0  0  0  0  0  0  0  0  0  0  0  0
    5.1930   -2.7816    0.0000 C   0  0  0  0  0  0  0  0  0  0  0  0
   15.7363    0.5719    0.0000 C   0  0  0  0  0  0  0  0  0  0  0  0
   14.8877   -0.9380    0.0000 C   0  0  0  0  0  0  0  0  0  0  0  0
    4.8277   -3.7125    0.0000 C   0  0  0  0  0  0  0  0  0  0  0  0
    3.2153   -3.0797    0.0000 C   0  0  0  0  0  0  0  0  0  0  0  0
   15.7479   -0.4280    0.0000 C   0  0  0  0  0  0  0  0  0  0  0  0
    3.8388   -3.8615    0.0000 C   0  0  0  0  0  0  0  0  0  0  0  0
    9.8093    0.0784    0.0000 H   0  0  0  0  0  0  0  0  0  0  0  0
   11.4078    0.4019    0.0000 H   0  0  0  0  0  0  0  0  0  0  0  0
    7.8909    0.2525    0.0000 H   0  0  0  0  0  0  0  0  0  0  0  0
    6.6756   -0.4737    0.0000 H   0  0  0  0  0  0  0  0  0  0  0  0
   12.0009    1.9212    0.0000 H   0  0  0  0  0  0  0  0  0  0  0  0
   11.5944    2.6068    0.0000 H   0  0  0  0  0  0  0  0  0  0  0  0
    5.1365    1.1161    0.0000 H   0  0  0  0  0  0  0  0  0  0  0  0
    5.2553    0.3280    0.0000 H   0  0  0  0  0  0  0  0  0  0  0  0
    9.0142    0.2052    0.0000 H   0  0  0  0  0  0  0  0  0  0  0  0
   11.9939   -0.6899    0.0000 H   0  0  0  0  0  0  0  0  0  0  0  0
    6.8475   -1.5227    0.0000 H   0  0  0  0  0  0  0  0  0  0  0  0
    8.2118    2.1757    0.0000 H   0  0  0  0  0  0  0  0  0  0  0  0
    8.0293    2.9217    0.0000 H   0  0  0  0  0  0  0  0  0  0  0  0
    9.6125    4.6907    0.0000 H   0  0  0  0  0  0  0  0  0  0  0  0
    5.3536    3.9838    0.0000 H   0  0  0  0  0  0  0  0  0  0  0  0
   11.0738   -3.8735    0.0000 H   0  0  0  0  0  0  0  0  0  0  0  0
   11.3874    4.6733    0.0000 H   0  0  0  0  0  0  0  0  0  0  0  0
   12.8603   -2.2390    0.0000 H   0  0  0  0  0  0  0  0  0  0  0  0
    3.9898    2.8478    0.0000 H   0  0  0  0  0  0  0  0  0  0  0  0
    6.6648   -3.1131    0.0000 H   0  0  0  0  0  0  0  0  0  0  0  0
    7.8381    4.6460    0.0000 H   0  0  0  0  0  0  0  0  0  0  0  0
    6.7562    5.0714    0.0000 H   0  0  0  0  0  0  0  0  0  0  0  0
   13.4826   -0.7642    0.0000 H   0  0  0  0  0  0  0  0  0  0  0  0
   14.8574    1.6818    0.0000 H   0  0  0  0  0  0  0  0  0  0  0  0
    3.1941   -1.6641    0.0000 H   0  0  0  0  0  0  0  0  0  0  0  0
    5.8061   -2.6892    0.0000 H   0  0  0  0  0  0  0  0  0  0  0  0
   17.1370    0.7781    0.0000 H   0  0  0  0  0  0  0  0  0  0  0  0
   15.4397   -2.2417    0.0000 H   0  0  0  0  0  0  0  0  0  0  0  0
    5.2246   -5.0714    0.0000 H   0  0  0  0  0  0  0  0  0  0  0  0
    2.0000   -3.8059    0.0000 H   0  0  0  0  0  0  0  0  0  0  0  0
   17.1529   -0.6018    0.0000 H   0  0  0  0  0  0  0  0  0  0  0  0
    2.8604   -4.8848    0.0000 H   0  0  0  0  0  0  0  0  0  0  0  0
  1 21  1  0  0  0  0
  1 33  1  0  0  0  0
  2 23  1  0  0  0  0
  2 35  1  0  0  0  0
 22  3  1  1  0  0  0
  3 50  1  0  0  0  0
 24  4  1  6  0  0  0
  4 51  1  0  0  0  0
  5 38  1  0  0  0  0
  5 79  1  0  0  0  0
  6 39  1  0  0  0  0
  6 80  1  0  0  0  0
  7 40  1  0  0  0  0
  7 81  1  0  0  0  0
  8 42  1  0  0  0  0
  8 82  1  0  0  0  0
  9 44  1  0  0  0  0
  9 83  1  0  0  0  0
 10 41  2  0  0  0  0
 11 47  1  0  0  0  0
 11 84  1  0  0  0  0
 12 49  1  0  0  0  0
 12 85  1  0  0  0  0
 13 50  2  0  0  0  0
 14 51  2  0  0  0  0
 15 58  1  0  0  0  0
 15 90  1  0  0  0  0
 16 59  1  0  0  0  0
 16 91  1  0  0  0  0
 17 60  1  0  0  0  0
 17 92  1  0  0  0  0
 18 61  1  0  0  0  0
 18 93  1  0  0  0  0
 19 62  1  0  0  0  0
 19 94  1  0  0  0  0
 20 63  1  0  0  0  0
 20 95  1  0  0  0  0
 21 22  1  0  0  0  0
 21 25  1  0  0  0  0
 21 64  1  6  0  0  0
 22 26  1  0  0  0  0
 22 65  1  0  0  0  0
 23 24  1  0  0  0  0
 23 29  1  6  0  0  0
 23 66  1  0  0  0  0
 24 28  1  0  0  0  0
 24 67  1  0  0  0  0
 25 27  1  0  0  0  0
 25 36  2  0  0  0  0
 26 30  1  0  0  0  0
 26 68  1  0  0  0  0
 26 69  1  0  0  0  0
 27 31  1  0  0  0  0
 27 34  2  0  0  0  0
 28 32  1  0  0  0  0
 28 70  1  0  0  0  0
 28 71  1  0  0  0  0
 29 31  2  0  0  0  0
 29 37  1  0  0  0  0
 30 33  1  0  0  0  0
 30 39  2  0  0  0  0
 31 72  1  0  0  0  0
 32 35  1  0  0  0  0
 32 42  2  0  0  0  0
 33 43  2  0  0  0  0
 34 38  1  0  0  0  0
 34 41  1  0  0  0  0
 35 45  2  0  0  0  0
 36 40  1  0  0  0  0
 36 73  1  0  0  0  0
 37 44  2  0  0  0  0
 37 74  1  0  0  0  0
 38 40  2  0  0  0  0
 39 46  1  0  0  0  0
 41 44  1  0  0  0  0
 42 48  1  0  0  0  0
 43 47  1  0  0  0  0
 43 75  1  0  0  0  0
 45 49  1  0  0  0  0
 45 76  1  0  0  0  0
 46 47  2  0  0  0  0
 46 77  1  0  0  0  0
 48 49  2  0  0  0  0
 48 78  1  0  0  0  0
 50 52  1  0  0  0  0
 51 53  1  0  0  0  0
 52 54  2  0  0  0  0
 52 55  1  0  0  0  0
 53 56  2  0  0  0  0
 53 57  1  0  0  0  0
 54 59  1  0  0  0  0
 54 86  1  0  0  0  0
 55 58  2  0  0  0  0
 55 87  1  0  0  0  0
 56 61  1  0  0  0  0
 56 88  1  0  0  0  0
 57 60  2  0  0  0  0
 57 89  1  0  0  0  0
 58 62  1  0  0  0  0
 59 62  2  0  0  0  0
 60 63  1  0  0  0  0
 61 63  2  0  0  0  0
M  END
> <PUBCHEM_COMPOUND_CID>
135403795

> <PUBCHEM_COMPOUND_CANONICALIZED>
1

> <PUBCHEM_CACTVS_COMPLEXITY>
1730

> <PUBCHEM_CACTVS_HBOND_ACCEPTOR>
20

> <PUBCHEM_CACTVS_HBOND_DONOR>
13

> <PUBCHEM_CACTVS_ROTATABLE_BOND>
8

> <PUBCHEM_CACTVS_SUBSKEYS>
AAADcfB8PgAAAAAAAAAAAAAAAAAAAAAAAAA0aMGDBAAAAACRVAAAGgAACAAADBSgmAIwDoAABgCIAqDSCAICCAAkIAAAiAFGiMgNJzaGNRqCeWGl4BULuYfK7PzOoAADCAAYQABAAAYQADCAAAAAAAAAAA==

> <PUBCHEM_IUPAC_OPENEYE_NAME>
[(2R,3R)-2-[1-[(2R,3R)-5,7-dihydroxy-3-(3,4,5-trihydroxybenzoyl)oxy-chroman-2-yl]-3,4,6-trihydroxy-5-oxo-benzo[7]annulen-8-yl]-5,7-dihydroxy-chroman-3-yl] 3,4,5-trihydroxybenzoate

> <PUBCHEM_IUPAC_CAS_NAME>
3,4,5-trihydroxybenzoic acid [(2R,3R)-2-[1-[(2R,3R)-5,7-dihydroxy-3-[oxo-(3,4,5-trihydroxyphenyl)methoxy]-3,4-dihydro-2H-1-benzopyran-2-yl]-3,4,6-trihydroxy-5-oxo-8-benzo[7]annulenyl]-5,7-dihydroxy-3,4-dihydro-2H-1-benzopyran-3-yl] ester

> <PUBCHEM_IUPAC_NAME_MARKUP>
[(2<I>R</I>,3<I>R</I>)-2-[1-[(2<I>R</I>,3<I>R</I>)-5,7-dihydroxy-3-(3,4,5-trihydroxybenzoyl)oxy-3,4-dihydro-2<I>H</I>-chromen-2-yl]-3,4,6-trihydroxy-5-oxobenzo[7]annulen-8-yl]-5,7-dihydroxy-3,4-dihydro-2<I>H</I>-chromen-3-yl] 3,4,5-trihydroxybenzoate

> <PUBCHEM_IUPAC_NAME>
[(2R,3R)-2-[1-[(2R,3R)-5,7-dihydroxy-3-(3,4,5-trihydroxybenzoyl)oxy-3,4-dihydro-2H-chromen-2-yl]-3,4,6-trihydroxy-5-oxobenzo[7]annulen-8-yl]-5,7-dihydroxy-3,4-dihydro-2H-chromen-3-yl] 3,4,5-trihydroxybenzoate

> <PUBCHEM_IUPAC_SYSTEMATIC_NAME>
[(2R,3R)-2-[1-[(2R,3R)-5,7-bis(oxidanyl)-3-[3,4,5-tris(oxidanyl)phenyl]carbonyloxy-3,4-dihydro-2H-chromen-2-yl]-3,4,6-tris(oxidanyl)-5-oxidanylidene-benzo[7]annulen-8-yl]-5,7-bis(oxidanyl)-3,4-dihydro-2H-chromen-3-yl] 3,4,5-tris(oxidanyl)benzoate

> <PUBCHEM_IUPAC_TRADITIONAL_NAME>
3,4,5-trihydroxybenzoic acid [(2R,3R)-2-[1-[(2R,3R)-3-galloyloxy-5,7-dihydroxy-chroman-2-yl]-3,4,6-trihydroxy-5-keto-benzocyclohepten-8-yl]-5,7-dihydroxy-chroman-3-yl] ester

> <PUBCHEM_IUPAC_INCHI>
InChI=1S/C43H32O20/c44-17-7-23(46)21-12-33(62-42(58)15-3-25(48)36(54)26(49)4-15)40(60-31(21)9-17)14-1-19-20(11-30(53)39(57)35(19)38(56)29(52)2-14)41-34(13-22-24(47)8-18(45)10-32(22)61-41)63-43(59)16-5-27(50)37(55)28(51)6-16/h1-11,33-34,40-41,44-51,53-55,57H,12-13H2,(H,52,56)/t33-,34-,40-,41-/m1/s1

> <PUBCHEM_IUPAC_INCHIKEY>
ZEASWHWETFMWCV-ISBUVJFSSA-N

> <PUBCHEM_XLOGP3_AA>
4.7

> <PUBCHEM_EXACT_MASS>
868.148693

> <PUBCHEM_MOLECULAR_FORMULA>
C43H32O20

> <PUBCHEM_MOLECULAR_WEIGHT>
868.7

> <PUBCHEM_OPENEYE_CAN_SMILES>
C1C(C(OC2=CC(=CC(=C21)O)O)C3=CC4=C(C(=C(C=C4C5C(CC6=C(C=C(C=C6O5)O)O)OC(=O)C7=CC(=C(C(=C7)O)O)O)O)O)C(=O)C(=C3)O)OC(=O)C8=CC(=C(C(=C8)O)O)O

> <PUBCHEM_OPENEYE_ISO_SMILES>
C1[C@H]([C@H](OC2=CC(=CC(=C21)O)O)C3=CC4=C(C(=C(C=C4[C@@H]5[C@@H](CC6=C(C=C(C=C6O5)O)O)OC(=O)C7=CC(=C(C(=C7)O)O)O)O)O)C(=O)C(=C3)O)OC(=O)C8=CC(=C(C(=C8)O)O)O

> <PUBCHEM_CACTVS_TPSA>
351

> <PUBCHEM_MONOISOTOPIC_WEIGHT>
868.148693

> <PUBCHEM_TOTAL_CHARGE>
0

> <PUBCHEM_HEAVY_ATOM_COUNT>
63

> <PUBCHEM_ATOM_DEF_STEREO_COUNT>
4

> <PUBCHEM_ATOM_UDEF_STEREO_COUNT>
0

> <PUBCHEM_BOND_DEF_STEREO_COUNT>
0

> <PUBCHEM_BOND_UDEF_STEREO_COUNT>
0

> <PUBCHEM_ISOTOPIC_ATOM_COUNT>
0

> <PUBCHEM_COMPONENT_COUNT>
1

> <PUBCHEM_CACTVS_TAUTO_COUNT>
-1

> <PUBCHEM_COORDINATE_TYPE>
1
5
255

> <PUBCHEM_BONDANNOTATIONS>
21  64  6
23  29  6
25  27  8
25  36  8
27  31  8
27  34  8
29  31  8
29  37  8
22  3  5
30  33  8
30  39  8
32  35  8
32  42  8
33  43  8
34  38  8
34  41  8
35  45  8
36  40  8
37  44  8
38  40  8
39  46  8
24  4  6
41  44  8
42  48  8
43  47  8
45  49  8
46  47  8
48  49  8
52  54  8
52  55  8
53  56  8
53  57  8
54  59  8
55  58  8
56  61  8
57  60  8
58  62  8
59  62  8
60  63  8
61  63  8

$$$$
