101446898
  -OEChem-09152013202D

189205  0     1  0  0  0  0  0999 V2000
    5.4506   -0.2772    0.0000 O   0  0  0  0  0  0  0  0  0  0  0  0
    4.9383   -1.3299    0.0000 O   0  0  0  0  0  0  0  0  0  0  0  0
    5.2347    0.8769    0.0000 O   0  0  0  0  0  0  0  0  0  0  0  0
    4.4662   -1.9731    0.0000 O   0  0  0  0  0  0  0  0  0  0  0  0
    4.9382    1.6405    0.0000 O   0  0  0  0  0  0  0  0  0  0  0  0
    9.3483   -1.8401    0.0000 O   0  0  0  0  0  0  0  0  0  0  0  0
    9.4588   -0.3853    0.0000 O   0  0  0  0  0  0  0  0  0  0  0  0
    8.7376   -4.5871    0.0000 O   0  0  0  0  0  0  0  0  0  0  0  0
    9.5812    3.9424    0.0000 O   0  0  0  0  0  0  0  0  0  0  0  0
    9.5508   -1.1867    0.0000 O   0  0  0  0  0  0  0  0  0  0  0  0
    7.6058   -0.9317    0.0000 O   0  0  0  0  0  0  0  0  0  0  0  0
    4.1565   -3.3339    0.0000 O   0  0  0  0  0  0  0  0  0  0  0  0
    5.0021    3.0822    0.0000 O   0  0  0  0  0  0  0  0  0  0  0  0
    6.5537   -6.0806    0.0000 O   0  0  0  0  0  0  0  0  0  0  0  0
    7.2312    5.3357    0.0000 O   0  0  0  0  0  0  0  0  0  0  0  0
    4.6511   -5.2947    0.0000 O   0  0  0  0  0  0  0  0  0  0  0  0
    6.0125    4.8639    0.0000 O   0  0  0  0  0  0  0  0  0  0  0  0
    9.8935   -4.4291    0.0000 O   0  0  0  0  0  0  0  0  0  0  0  0
   11.6946    1.0293    0.0000 O   0  0  0  0  0  0  0  0  0  0  0  0
    9.6564   -7.9666    0.0000 O   0  0  0  0  0  0  0  0  0  0  0  0
    9.6186    7.4444    0.0000 O   0  0  0  0  0  0  0  0  0  0  0  0
    6.4194   -3.9861    0.0000 O   0  0  0  0  0  0  0  0  0  0  0  0
    8.9456    3.0364    0.0000 O   0  0  0  0  0  0  0  0  0  0  0  0
   12.1577   -5.4618    0.0000 O   0  0  0  0  0  0  0  0  0  0  0  0
   12.6704    5.6509    0.0000 O   0  0  0  0  0  0  0  0  0  0  0  0
    7.0096   -7.7516    0.0000 O   0  0  0  0  0  0  0  0  0  0  0  0
    8.1145    6.8256    0.0000 O   0  0  0  0  0  0  0  0  0  0  0  0
    7.7777   -7.2550    0.0000 O   0  0  0  0  0  0  0  0  0  0  0  0
   12.2446    4.5164    0.0000 O   0  0  0  0  0  0  0  0  0  0  0  0
   13.0997   -5.0213    0.0000 O   0  0  0  0  0  0  0  0  0  0  0  0
   14.5341    0.3338    0.0000 O   0  0  0  0  0  0  0  0  0  0  0  0
   14.0144   -3.2427    0.0000 O   0  0  0  0  0  0  0  0  0  0  0  0
   14.5840   -1.6655    0.0000 O   0  0  0  0  0  0  0  0  0  0  0  0
    3.8611   -9.5084    0.0000 O   0  0  0  0  0  0  0  0  0  0  0  0
    2.9492   -6.1665    0.0000 O   0  0  0  0  0  0  0  0  0  0  0  0
    3.7789    6.3757    0.0000 O   0  0  0  0  0  0  0  0  0  0  0  0
    5.5455    9.3554    0.0000 O   0  0  0  0  0  0  0  0  0  0  0  0
    2.4404   -8.1007    0.0000 O   0  0  0  0  0  0  0  0  0  0  0  0
    3.8020    8.3755    0.0000 O   0  0  0  0  0  0  0  0  0  0  0  0
    6.9007   -0.9756    0.0000 C   0  0  3  0  0  0  0  0  0  0  0  0
    7.0366    0.0092    0.0000 C   0  0  3  0  0  0  0  0  0  0  0  0
    5.9224   -1.1522    0.0000 C   0  0  3  0  0  0  0  0  0  0  0  0
    6.1357    0.4431    0.0000 C   0  0  3  0  0  0  0  0  0  0  0  0
    7.6300   -1.6226    0.0000 C   0  0  0  0  0  0  0  0  0  0  0  0
    7.9376    0.4431    0.0000 C   0  0  0  0  0  0  0  0  0  0  0  0
    5.4654   -2.0135    0.0000 C   0  0  0  0  0  0  0  0  0  0  0  0
    5.9132    1.4180    0.0000 C   0  0  0  0  0  0  0  0  0  0  0  0
    5.8515   -2.9088    0.0000 C   0  0  0  0  0  0  0  0  0  0  0  0
    6.5366    2.1998    0.0000 C   0  0  0  0  0  0  0  0  0  0  0  0
    7.5815   -2.5964    0.0000 C   0  0  0  0  0  0  0  0  0  0  0  0
    8.1601    1.4180    0.0000 C   0  0  0  0  0  0  0  0  0  0  0  0
    6.7914   -3.1677    0.0000 C   0  0  0  0  0  0  0  0  0  0  0  0
    7.5366    2.1998    0.0000 C   0  0  0  0  0  0  0  0  0  0  0  0
    8.5520   -1.2353    0.0000 C   0  0  0  0  0  0  0  0  0  0  0  0
    8.4591   -0.4102    0.0000 C   0  0  0  0  0  0  0  0  0  0  0  0
    7.0625   -4.1464    0.0000 C   0  0  0  0  0  0  0  0  0  0  0  0
    8.0713    3.0938    0.0000 C   0  0  0  0  0  0  0  0  0  0  0  0
    5.1174   -3.6106    0.0000 C   0  0  0  0  0  0  0  0  0  0  0  0
    6.0020    3.0938    0.0000 C   0  0  0  0  0  0  0  0  0  0  0  0
    7.7729   -4.8503    0.0000 C   0  0  2  0  0  0  0  0  0  0  0  0
    8.5813    3.9539    0.0000 C   0  0  2  0  0  0  0  0  0  0  0  0
    6.3449   -4.8651    0.0000 C   0  0  0  0  0  0  0  0  0  0  0  0
    7.5575    3.9998    0.0000 C   0  0  0  0  0  0  0  0  0  0  0  0
    7.5185   -5.8174    0.0000 C   0  0  1  0  0  0  0  0  0  0  0  0
    8.0913    4.8257    0.0000 C   0  0  1  0  0  0  0  0  0  0  0  0
    5.3658   -4.5954    0.0000 C   0  0  0  0  0  0  0  0  0  0  0  0
    6.5158    3.9998    0.0000 C   0  0  0  0  0  0  0  0  0  0  0  0
    9.2227   -2.8322    0.0000 C   0  0  1  0  0  0  0  0  0  0  0  0
   10.0822    0.3965    0.0000 C   0  0  1  0  0  0  0  0  0  0  0  0
    8.2288   -6.5213    0.0000 C   0  0  0  0  0  0  0  0  0  0  0  0
    8.6013    5.6859    0.0000 C   0  0  0  0  0  0  0  0  0  0  0  0
   10.0191   -3.4370    0.0000 C   0  0  1  0  0  0  0  0  0  0  0  0
   11.0711    0.2475    0.0000 C   0  0  1  0  0  0  0  0  0  0  0  0
    8.3008   -3.2195    0.0000 C   0  0  0  0  0  0  0  0  0  0  0  0
    9.7169    1.3274    0.0000 C   0  0  0  0  0  0  0  0  0  0  0  0
    9.1935   -6.2580    0.0000 C   0  0  0  0  0  0  0  0  0  0  0  0
    9.6013    5.6743    0.0000 C   0  0  0  0  0  0  0  0  0  0  0  0
    9.4479   -5.2910    0.0000 C   0  0  0  0  0  0  0  0  0  0  0  0
   10.0912    4.8026    0.0000 C   0  0  0  0  0  0  0  0  0  0  0  0
    8.1752   -4.2116    0.0000 C   0  0  0  0  0  0  0  0  0  0  0  0
   10.3404    2.1092    0.0000 C   0  0  0  0  0  0  0  0  0  0  0  0
   11.0179   -3.3884    0.0000 C   0  0  0  0  0  0  0  0  0  0  0  0
   11.9493   -0.2308    0.0000 C   0  0  0  0  0  0  0  0  0  0  0  0
    8.9716   -4.8164    0.0000 C   0  0  0  0  0  0  0  0  0  0  0  0
   11.3292    1.9602    0.0000 C   0  0  0  0  0  0  0  0  0  0  0  0
    9.9220   -7.0026    0.0000 C   0  0  0  0  0  0  0  0  0  0  0  0
   10.1186    6.5784    0.0000 C   0  0  0  0  0  0  0  0  0  0  0  0
   10.4485   -5.0013    0.0000 C   0  0  0  0  0  0  0  0  0  0  0  0
   11.1325    4.7745    0.0000 C   0  0  0  0  0  0  0  0  0  0  0  0
    7.2087   -4.6001    0.0000 C   0  0  0  0  0  0  0  0  0  0  0  0
    9.9449    3.0729    0.0000 C   0  0  0  0  0  0  0  0  0  0  0  0
    6.2993   -7.0477    0.0000 C   0  0  0  0  0  0  0  0  0  0  0  0
    7.2427    6.3356    0.0000 C   0  0  0  0  0  0  0  0  0  0  0  0
   10.9290   -6.7361    0.0000 C   0  0  0  0  0  0  0  0  0  0  0  0
   11.1602    6.5744    0.0000 C   0  0  0  0  0  0  0  0  0  0  0  0
   11.1940   -5.7288    0.0000 C   0  0  0  0  0  0  0  0  0  0  0  0
   11.6706    5.6663    0.0000 C   0  0  0  0  0  0  0  0  0  0  0  0
   11.5594   -4.2292    0.0000 C   0  0  0  0  0  0  0  0  0  0  0  0
   12.8026    0.2907    0.0000 C   0  0  0  0  0  0  0  0  0  0  0  0
   11.4753   -2.4991    0.0000 C   0  0  0  0  0  0  0  0  0  0  0  0
   11.9742   -1.2305    0.0000 C   0  0  0  0  0  0  0  0  0  0  0  0
    8.8567   -5.8517    0.0000 C   0  0  0  0  0  0  0  0  0  0  0  0
   11.9911    2.7645    0.0000 C   0  0  0  0  0  0  0  0  0  0  0  0
    7.0699   -5.6325    0.0000 C   0  0  0  0  0  0  0  0  0  0  0  0
   10.5881    3.8922    0.0000 C   0  0  0  0  0  0  0  0  0  0  0  0
    7.8995   -6.2624    0.0000 C   0  0  0  0  0  0  0  0  0  0  0  0
   11.6181    3.7370    0.0000 C   0  0  0  0  0  0  0  0  0  0  0  0
    5.3346   -7.3110    0.0000 C   0  0  0  0  0  0  0  0  0  0  0  0
    6.3825    6.8456    0.0000 C   0  0  0  0  0  0  0  0  0  0  0  0
   12.5582   -4.1806    0.0000 C   0  0  0  0  0  0  0  0  0  0  0  0
   13.6808   -0.1876    0.0000 C   0  0  0  0  0  0  0  0  0  0  0  0
   12.4741   -2.4506    0.0000 C   0  0  0  0  0  0  0  0  0  0  0  0
   12.8524   -1.7087    0.0000 C   0  0  0  0  0  0  0  0  0  0  0  0
   13.0156   -3.2913    0.0000 C   0  0  0  0  0  0  0  0  0  0  0  0
   13.7057   -1.1873    0.0000 C   0  0  0  0  0  0  0  0  0  0  0  0
    4.6243   -6.6071    0.0000 C   0  0  0  0  0  0  0  0  0  0  0  0
    5.0802   -8.2780    0.0000 C   0  0  0  0  0  0  0  0  0  0  0  0
    6.3941    7.8455    0.0000 C   0  0  0  0  0  0  0  0  0  0  0  0
    5.5108    6.3556    0.0000 C   0  0  0  0  0  0  0  0  0  0  0  0
    4.1155   -8.5413    0.0000 C   0  0  0  0  0  0  0  0  0  0  0  0
    3.6596   -6.8704    0.0000 C   0  0  0  0  0  0  0  0  0  0  0  0
    4.6506    6.8656    0.0000 C   0  0  0  0  0  0  0  0  0  0  0  0
    5.5339    8.3555    0.0000 C   0  0  0  0  0  0  0  0  0  0  0  0
    3.4052   -7.8374    0.0000 C   0  0  0  0  0  0  0  0  0  0  0  0
    4.6622    7.8656    0.0000 C   0  0  0  0  0  0  0  0  0  0  0  0
    7.4822   -0.7607    0.0000 H   0  0  0  0  0  0  0  0  0  0  0  0
    7.5378   -0.3559    0.0000 H   0  0  0  0  0  0  0  0  0  0  0  0
    8.1264   -2.8921    0.0000 H   0  0  0  0  0  0  0  0  0  0  0  0
    8.7646    1.5560    0.0000 H   0  0  0  0  0  0  0  0  0  0  0  0
    4.5378   -0.8566    0.0000 H   0  0  0  0  0  0  0  0  0  0  0  0
    4.7224    0.5277    0.0000 H   0  0  0  0  0  0  0  0  0  0  0  0
    7.9891   -4.0283    0.0000 H   0  0  0  0  0  0  0  0  0  0  0  0
    8.9978    3.2130    0.0000 H   0  0  0  0  0  0  0  0  0  0  0  0
    6.5035   -5.4644    0.0000 H   0  0  0  0  0  0  0  0  0  0  0  0
    7.8695    4.5356    0.0000 H   0  0  0  0  0  0  0  0  0  0  0  0
    7.0780   -5.3810    0.0000 H   0  0  0  0  0  0  0  0  0  0  0  0
    7.6479    4.3924    0.0000 H   0  0  0  0  0  0  0  0  0  0  0  0
    9.7944   -2.5921    0.0000 H   0  0  0  0  0  0  0  0  0  0  0  0
   10.3087   -0.1806    0.0000 H   0  0  0  0  0  0  0  0  0  0  0  0
    7.7225   -6.8792    0.0000 H   0  0  0  0  0  0  0  0  0  0  0  0
    8.4934   -7.0820    0.0000 H   0  0  0  0  0  0  0  0  0  0  0  0
    8.7160    6.2952    0.0000 H   0  0  0  0  0  0  0  0  0  0  0  0
    8.0212    5.9046    0.0000 H   0  0  0  0  0  0  0  0  0  0  0  0
   10.2026   -2.8448    0.0000 H   0  0  0  0  0  0  0  0  0  0  0  0
   10.8736   -0.3402    0.0000 H   0  0  0  0  0  0  0  0  0  0  0  0
    8.1636   -2.6149    0.0000 H   0  0  0  0  0  0  0  0  0  0  0  0
    7.6815   -3.2496    0.0000 H   0  0  0  0  0  0  0  0  0  0  0  0
    9.3066    1.7923    0.0000 H   0  0  0  0  0  0  0  0  0  0  0  0
    9.1878    1.0041    0.0000 H   0  0  0  0  0  0  0  0  0  0  0  0
    3.7100   -3.7641    0.0000 H   0  0  0  0  0  0  0  0  0  0  0  0
    4.6859    3.6155    0.0000 H   0  0  0  0  0  0  0  0  0  0  0  0
    4.8050   -5.8953    0.0000 H   0  0  0  0  0  0  0  0  0  0  0  0
    6.3204    5.4020    0.0000 H   0  0  0  0  0  0  0  0  0  0  0  0
   10.5993   -4.3999    0.0000 H   0  0  0  0  0  0  0  0  0  0  0  0
   11.4300    4.2305    0.0000 H   0  0  0  0  0  0  0  0  0  0  0  0
   11.3677   -7.1742    0.0000 H   0  0  0  0  0  0  0  0  0  0  0  0
   11.4743    7.1089    0.0000 H   0  0  0  0  0  0  0  0  0  0  0  0
   11.2759   -4.7805    0.0000 H   0  0  0  0  0  0  0  0  0  0  0  0
   12.7871    0.9105    0.0000 H   0  0  0  0  0  0  0  0  0  0  0  0
   11.1395   -1.9779    0.0000 H   0  0  0  0  0  0  0  0  0  0  0  0
   11.4452   -1.5538    0.0000 H   0  0  0  0  0  0  0  0  0  0  0  0
    9.3547   -6.2209    0.0000 H   0  0  0  0  0  0  0  0  0  0  0  0
   12.6031    2.6650    0.0000 H   0  0  0  0  0  0  0  0  0  0  0  0
    6.4974   -5.8704    0.0000 H   0  0  0  0  0  0  0  0  0  0  0  0
   10.3593    4.4685    0.0000 H   0  0  0  0  0  0  0  0  0  0  0  0
   10.0918   -8.4081    0.0000 H   0  0  0  0  0  0  0  0  0  0  0  0
    9.9286    7.9814    0.0000 H   0  0  0  0  0  0  0  0  0  0  0  0
   12.7576   -1.8992    0.0000 H   0  0  0  0  0  0  0  0  0  0  0  0
   12.8679   -2.3285    0.0000 H   0  0  0  0  0  0  0  0  0  0  0  0
    5.8450   -4.2196    0.0000 H   0  0  0  0  0  0  0  0  0  0  0  0
    8.6553    2.4886    0.0000 H   0  0  0  0  0  0  0  0  0  0  0  0
   12.3131   -4.8616    0.0000 H   0  0  0  0  0  0  0  0  0  0  0  0
   12.9721    5.1093    0.0000 H   0  0  0  0  0  0  0  0  0  0  0  0
    4.7820   -6.0075    0.0000 H   0  0  0  0  0  0  0  0  0  0  0  0
    5.5206   -8.7144    0.0000 H   0  0  0  0  0  0  0  0  0  0  0  0
    6.9346    8.1493    0.0000 H   0  0  0  0  0  0  0  0  0  0  0  0
    5.5036    5.7357    0.0000 H   0  0  0  0  0  0  0  0  0  0  0  0
    8.2729   -7.6281    0.0000 H   0  0  0  0  0  0  0  0  0  0  0  0
   12.0203    5.0944    0.0000 H   0  0  0  0  0  0  0  0  0  0  0  0
   13.7190   -4.9912    0.0000 H   0  0  0  0  0  0  0  0  0  0  0  0
   15.0786    0.0373    0.0000 H   0  0  0  0  0  0  0  0  0  0  0  0
   14.2979   -2.6913    0.0000 H   0  0  0  0  0  0  0  0  0  0  0  0
   15.1130   -1.3422    0.0000 H   0  0  0  0  0  0  0  0  0  0  0  0
    3.2630   -9.6716    0.0000 H   0  0  0  0  0  0  0  0  0  0  0  0
    2.3511   -6.3296    0.0000 H   0  0  0  0  0  0  0  0  0  0  0  0
    3.2456    6.6919    0.0000 H   0  0  0  0  0  0  0  0  0  0  0  0
    5.0122    9.6716    0.0000 H   0  0  0  0  0  0  0  0  0  0  0  0
    2.0000   -7.6643    0.0000 H   0  0  0  0  0  0  0  0  0  0  0  0
    3.2615    8.0718    0.0000 H   0  0  0  0  0  0  0  0  0  0  0  0
  1 42  1  0  0  0  0
  1 43  1  0  0  0  0
  2 42  1  0  0  0  0
  2130  1  0  0  0  0
  3 43  1  0  0  0  0
  3131  1  0  0  0  0
  4 46  2  0  0  0  0
  5 47  2  0  0  0  0
  6 54  1  0  0  0  0
 68  6  1  1  0  0  0
  7 55  1  0  0  0  0
 69  7  1  6  0  0  0
  8 60  1  0  0  0  0
  8 78  1  0  0  0  0
  9 61  1  0  0  0  0
  9 79  1  0  0  0  0
 10 54  2  0  0  0  0
 11 55  2  0  0  0  0
 12 58  1  0  0  0  0
 12150  1  0  0  0  0
 13 59  1  0  0  0  0
 13151  1  0  0  0  0
 64 14  1  1  0  0  0
 14 92  1  0  0  0  0
 65 15  1  6  0  0  0
 15 93  1  0  0  0  0
 16 66  1  0  0  0  0
 16152  1  0  0  0  0
 17 67  1  0  0  0  0
 17153  1  0  0  0  0
 18 72  1  0  0  0  0
 18 84  1  0  0  0  0
 19 73  1  0  0  0  0
 19 85  1  0  0  0  0
 20 86  1  0  0  0  0
 20166  1  0  0  0  0
 21 87  1  0  0  0  0
 21167  1  0  0  0  0
 22 90  1  0  0  0  0
 22170  1  0  0  0  0
 23 91  1  0  0  0  0
 23171  1  0  0  0  0
 24 96  1  0  0  0  0
 24172  1  0  0  0  0
 25 97  1  0  0  0  0
 25173  1  0  0  0  0
 26 92  2  0  0  0  0
 27 93  2  0  0  0  0
 28106  1  0  0  0  0
 28178  1  0  0  0  0
 29107  1  0  0  0  0
 29179  1  0  0  0  0
 30110  1  0  0  0  0
 30180  1  0  0  0  0
 31111  1  0  0  0  0
 31181  1  0  0  0  0
 32114  1  0  0  0  0
 32182  1  0  0  0  0
 33115  1  0  0  0  0
 33183  1  0  0  0  0
 34120  1  0  0  0  0
 34184  1  0  0  0  0
 35121  1  0  0  0  0
 35185  1  0  0  0  0
 36122  1  0  0  0  0
 36186  1  0  0  0  0
 37123  1  0  0  0  0
 37187  1  0  0  0  0
 38124  1  0  0  0  0
 38188  1  0  0  0  0
 39125  1  0  0  0  0
 39189  1  0  0  0  0
 40 41  1  0  0  0  0
 40 42  1  0  0  0  0
 40 44  1  0  0  0  0
 40126  1  0  0  0  0
 41 43  1  0  0  0  0
 41 45  1  0  0  0  0
 41127  1  0  0  0  0
 42 46  1  0  0  0  0
 43 47  1  0  0  0  0
 44 50  2  0  0  0  0
 44 54  1  0  0  0  0
 45 51  2  0  0  0  0
 45 55  1  0  0  0  0
 46 48  1  0  0  0  0
 47 49  1  0  0  0  0
 48 52  2  0  0  0  0
 48 58  1  0  0  0  0
 49 53  2  0  0  0  0
 49 59  1  0  0  0  0
 50 52  1  0  0  0  0
 50128  1  0  0  0  0
 51 53  1  0  0  0  0
 51129  1  0  0  0  0
 52 56  1  0  0  0  0
 53 57  1  0  0  0  0
 56 60  1  0  0  0  0
 56 62  2  0  0  0  0
 57 61  1  0  0  0  0
 57 63  2  0  0  0  0
 58 66  2  0  0  0  0
 59 67  2  0  0  0  0
 60 64  1  0  0  0  0
 60132  1  6  0  0  0
 61 65  1  0  0  0  0
 61133  1  1  0  0  0
 62 66  1  0  0  0  0
 62134  1  0  0  0  0
 63 67  1  0  0  0  0
 63135  1  0  0  0  0
 64 70  1  0  0  0  0
 64136  1  0  0  0  0
 65 71  1  0  0  0  0
 65137  1  0  0  0  0
 68 72  1  0  0  0  0
 68 74  1  0  0  0  0
 68138  1  0  0  0  0
 69 73  1  0  0  0  0
 69 75  1  0  0  0  0
 69139  1  0  0  0  0
 70 76  1  0  0  0  0
 70140  1  0  0  0  0
 70141  1  0  0  0  0
 71 77  1  0  0  0  0
 71142  1  0  0  0  0
 71143  1  0  0  0  0
 72 82  1  1  0  0  0
 72144  1  0  0  0  0
 73 83  1  6  0  0  0
 73145  1  0  0  0  0
 74 80  1  0  0  0  0
 74146  1  0  0  0  0
 74147  1  0  0  0  0
 75 81  1  0  0  0  0
 75148  1  0  0  0  0
 75149  1  0  0  0  0
 76 78  1  0  0  0  0
 76 86  2  0  0  0  0
 77 79  1  0  0  0  0
 77 87  2  0  0  0  0
 78 88  2  0  0  0  0
 79 89  2  0  0  0  0
 80 84  1  0  0  0  0
 80 90  2  0  0  0  0
 81 85  1  0  0  0  0
 81 91  2  0  0  0  0
 82 98  2  0  0  0  0
 82100  1  0  0  0  0
 83 99  2  0  0  0  0
 83101  1  0  0  0  0
 84102  2  0  0  0  0
 85103  2  0  0  0  0
 86 94  1  0  0  0  0
 87 95  1  0  0  0  0
 88 96  1  0  0  0  0
 88154  1  0  0  0  0
 89 97  1  0  0  0  0
 89155  1  0  0  0  0
 90104  1  0  0  0  0
 91105  1  0  0  0  0
 92108  1  0  0  0  0
 93109  1  0  0  0  0
 94 96  2  0  0  0  0
 94156  1  0  0  0  0
 95 97  2  0  0  0  0
 95157  1  0  0  0  0
 98110  1  0  0  0  0
 98158  1  0  0  0  0
 99111  1  0  0  0  0
 99159  1  0  0  0  0
100112  2  0  0  0  0
100160  1  0  0  0  0
101113  2  0  0  0  0
101161  1  0  0  0  0
102106  1  0  0  0  0
102162  1  0  0  0  0
103107  1  0  0  0  0
103163  1  0  0  0  0
104106  2  0  0  0  0
104164  1  0  0  0  0
105107  2  0  0  0  0
105165  1  0  0  0  0
108116  2  0  0  0  0
108117  1  0  0  0  0
109118  2  0  0  0  0
109119  1  0  0  0  0
110114  2  0  0  0  0
111115  2  0  0  0  0
112114  1  0  0  0  0
112168  1  0  0  0  0
113115  1  0  0  0  0
113169  1  0  0  0  0
116121  1  0  0  0  0
116174  1  0  0  0  0
117120  2  0  0  0  0
117175  1  0  0  0  0
118123  1  0  0  0  0
118176  1  0  0  0  0
119122  2  0  0  0  0
119177  1  0  0  0  0
120124  1  0  0  0  0
121124  2  0  0  0  0
122125  1  0  0  0  0
123125  2  0  0  0  0
M  END
> <PUBCHEM_COMPOUND_CID>
101446898

> <PUBCHEM_COMPOUND_CANONICALIZED>
1

> <PUBCHEM_CACTVS_COMPLEXITY>
3730

> <PUBCHEM_CACTVS_HBOND_ACCEPTOR>
39

> <PUBCHEM_CACTVS_HBOND_DONOR>
24

> <PUBCHEM_CACTVS_ROTATABLE_BOND>
16

> <PUBCHEM_CACTVS_SUBSKEYS>
AAADcfB8PgAAAAAAAAAAAAAAAAAAASAAAAA0aNGjBAgAAACRVAAAGgAACAAADRSgmAIwDoAABgCIAqDSCAICCAAkIAAIiAFGiMgdJzaGNR6CeWGl4BUPuYfK7vzuoAADCAAYQABAAAYQADCAAAAAAAAAAA==

> <PUBCHEM_IUPAC_OPENEYE_NAME>
bis[(2R,3R)-2-(3,4-dihydroxyphenyl)-5,7-dihydroxy-chroman-3-yl] 6,20-bis[(2R,3R)-5,7-dihydroxy-3-(3,4,5-trihydroxybenzoyl)oxy-chroman-2-yl]-8,9,12,14,17,18-hexahydroxy-11,15-dioxo-13-oxapentacyclo[12.9.0.02,12.05,10.016,21]tricosa-3,5(10),6,8,16(21),17,19,22-octaene-3,23-dicarboxylate

> <PUBCHEM_IUPAC_CAS_NAME>
6,20-bis[(2R,3R)-5,7-dihydroxy-3-[oxo-(3,4,5-trihydroxyphenyl)methoxy]-3,4-dihydro-2H-1-benzopyran-2-yl]-8,9,12,14,17,18-hexahydroxy-11,15-dioxo-13-oxapentacyclo[12.9.0.02,12.05,10.016,21]tricosa-3,5(10),6,8,16(21),17,19,22-octaene-3,23-dicarboxylic acid bis[(2R,3R)-2-(3,4-dihydroxyphenyl)-5,7-dihydroxy-3,4-dihydro-2H-1-benzopyran-3-yl] ester

> <PUBCHEM_IUPAC_NAME_MARKUP>
bis[(2<I>R</I>,3<I>R</I>)-2-(3,4-dihydroxyphenyl)-5,7-dihydroxy-3,4-dihydro-2<I>H</I>-chromen-3-yl] 6,20-bis[(2<I>R</I>,3<I>R</I>)-5,7-dihydroxy-3-(3,4,5-trihydroxybenzoyl)oxy-3,4-dihydro-2<I>H</I>-chromen-2-yl]-8,9,12,14,17,18-hexahydroxy-11,15-dioxo-13-oxapentacyclo[12.9.0.0<SUP>2,12</SUP>.0<SUP>5,10</SUP>.0<SUP>16,21</SUP>]tricosa-3,5(10),6,8,16(21),17,19,22-octaene-3,23-dicarboxylate

> <PUBCHEM_IUPAC_NAME>
bis[(2R,3R)-2-(3,4-dihydroxyphenyl)-5,7-dihydroxy-3,4-dihydro-2H-chromen-3-yl] 6,20-bis[(2R,3R)-5,7-dihydroxy-3-(3,4,5-trihydroxybenzoyl)oxy-3,4-dihydro-2H-chromen-2-yl]-8,9,12,14,17,18-hexahydroxy-11,15-dioxo-13-oxapentacyclo[12.9.0.02,12.05,10.016,21]tricosa-3,5(10),6,8,16(21),17,19,22-octaene-3,23-dicarboxylate

> <PUBCHEM_IUPAC_SYSTEMATIC_NAME>
bis[(2R,3R)-2-[3,4-bis(oxidanyl)phenyl]-5,7-bis(oxidanyl)-3,4-dihydro-2H-chromen-3-yl] 6,20-bis[(2R,3R)-5,7-bis(oxidanyl)-3-[3,4,5-tris(oxidanyl)phenyl]carbonyloxy-3,4-dihydro-2H-chromen-2-yl]-8,9,12,14,17,18-hexakis(oxidanyl)-11,15-bis(oxidanylidene)-13-oxapentacyclo[12.9.0.02,12.05,10.016,21]tricosa-3,5(10),6,8,16(21),17,19,22-octaene-3,23-dicarboxylate

> <PUBCHEM_IUPAC_TRADITIONAL_NAME>
6,20-bis[(2R,3R)-3-galloyloxy-5,7-dihydroxy-chroman-2-yl]-8,9,12,14,17,18-hexahydroxy-11,15-diketo-13-oxapentacyclo[12.9.0.02,12.05,10.016,21]tricosa-3,5(10),6,8,16(21),17,19,22-octaene-3,23-dicarboxylic acid bis[(2R,3R)-2-(3,4-dihydroxyphenyl)-5,7-dihydroxy-chroman-3-yl] ester

> <PUBCHEM_IUPAC_INCHI>
InChI=1S/C86H64O39/c87-31-11-47(93)39-23-63(75(117-59(39)15-31)27-1-3-45(91)51(97)5-27)123-83(113)43-19-35-37(77-65(25-41-49(95)13-33(89)17-61(41)119-77)121-81(111)29-7-53(99)71(105)54(100)8-29)21-57(103)73(107)67(35)79(109)85(115)69(43)70-44(84(114)124-64-24-40-48(94)12-32(88)16-60(40)118-76(64)28-2-4-46(92)52(98)6-28)20-36-38(22-58(104)74(108)68(36)80(110)86(70,116)125-85)78-66(26-42-50(96)14-34(90)18-62(42)120-78)122-82(112)30-9-55(101)72(106)56(102)10-30/h1-22,63-66,69-70,75-78,87-108,115-116H,23-26H2/t63-,64-,65-,66-,69?,70?,75-,76-,77-,78-,85?,86?/m1/s1

> <PUBCHEM_IUPAC_INCHIKEY>
NZZUXAWLUUCUKU-RNSYRANLSA-N

> <PUBCHEM_XLOGP3_AA>
7.9

> <PUBCHEM_EXACT_MASS>
1720.302472

> <PUBCHEM_MOLECULAR_FORMULA>
C86H64O39

> <PUBCHEM_MOLECULAR_WEIGHT>
1721.4

> <PUBCHEM_OPENEYE_CAN_SMILES>
C1C(C(OC2=CC(=CC(=C21)O)O)C3=CC(=C(C4=C3C=C(C5C6C(=CC7=C(C(=C(C=C7C8C(CC9=C(C=C(C=C9O8)O)O)OC(=O)C1=CC(=C(C(=C1)O)O)O)O)O)C(=O)C6(OC5(C4=O)O)O)C(=O)OC1CC2=C(C=C(C=C2OC1C1=CC(=C(C=C1)O)O)O)O)C(=O)OC1CC2=C(C=C(C=C2OC1C1=CC(=C(C=C1)O)O)O)O)O)O)OC(=O)C1=CC(=C(C(=C1)O)O)O

> <PUBCHEM_OPENEYE_ISO_SMILES>
C1[C@H]([C@H](OC2=CC(=CC(=C21)O)O)C3=CC(=C(C4=C3C=C(C5C6C(=CC7=C(C(=C(C=C7[C@@H]8[C@@H](CC9=C(C=C(C=C9O8)O)O)OC(=O)C1=CC(=C(C(=C1)O)O)O)O)O)C(=O)C6(OC5(C4=O)O)O)C(=O)O[C@@H]1CC2=C(C=C(C=C2O[C@@H]1C1=CC(=C(C=C1)O)O)O)O)C(=O)O[C@@H]1CC2=C(C=C(C=C2O[C@@H]1C1=CC(=C(C=C1)O)O)O)O)O)O)OC(=O)C1=CC(=C(C(=C1)O)O)O

> <PUBCHEM_CACTVS_TPSA>
671

> <PUBCHEM_MONOISOTOPIC_WEIGHT>
1720.302472

> <PUBCHEM_TOTAL_CHARGE>
0

> <PUBCHEM_HEAVY_ATOM_COUNT>
125

> <PUBCHEM_ATOM_DEF_STEREO_COUNT>
8

> <PUBCHEM_ATOM_UDEF_STEREO_COUNT>
4

> <PUBCHEM_BOND_DEF_STEREO_COUNT>
0

> <PUBCHEM_BOND_UDEF_STEREO_COUNT>
0

> <PUBCHEM_ISOTOPIC_ATOM_COUNT>
0

> <PUBCHEM_COMPONENT_COUNT>
1

> <PUBCHEM_CACTVS_TAUTO_COUNT>
-1

> <PUBCHEM_COORDINATE_TYPE>
1
5
255

> <PUBCHEM_BONDANNOTATIONS>
100  112  8
101  113  8
102  106  8
103  107  8
104  106  8
105  107  8
108  116  8
108  117  8
109  118  8
109  119  8
110  114  8
111  115  8
112  114  8
113  115  8
116  121  8
117  120  8
118  123  8
119  122  8
120  124  8
121  124  8
122  125  8
123  125  8
64  14  5
65  15  6
42  2  3
43  3  3
40  44  3
41  45  3
48  52  8
48  58  8
49  53  8
49  59  8
52  56  8
53  57  8
56  62  8
57  63  8
58  66  8
59  67  8
68  6  5
60  132  6
61  133  5
62  66  8
63  67  8
69  7  6
72  82  5
73  83  6
76  78  8
76  86  8
77  79  8
77  87  8
78  88  8
79  89  8
80  84  8
80  90  8
81  85  8
81  91  8
82  100  8
82  98  8
83  101  8
83  99  8
84  102  8
85  103  8
86  94  8
87  95  8
88  96  8
89  97  8
90  104  8
91  105  8
94  96  8
95  97  8
98  110  8
99  111  8

$$$$
