102332276
  -OEChem-09162003512D

 94 99  0     1  0  0  0  0  0999 V2000
    6.0010   -4.7500    0.0000 O   0  0  0  0  0  0  0  0  0  0  0  0
    7.7331   -2.7500    0.0000 O   0  0  0  0  0  0  0  0  0  0  0  0
    5.1350   -3.2500    0.0000 O   0  0  0  0  0  0  0  0  0  0  0  0
    9.4651   -2.7500    0.0000 O   0  0  0  0  0  0  0  0  0  0  0  0
   10.3312   -0.2500    0.0000 O   0  0  0  0  0  0  0  0  0  0  0  0
    7.7331   -5.7500    0.0000 O   0  0  0  0  0  0  0  0  0  0  0  0
    9.4651   -4.7500    0.0000 O   0  0  0  0  0  0  0  0  0  0  0  0
    4.2690   -5.7500    0.0000 O   0  0  0  0  0  0  0  0  0  0  0  0
    2.5369   -4.7500    0.0000 O   0  0  0  0  0  0  0  0  0  0  0  0
    2.5369   -2.7500    0.0000 O   0  0  0  0  0  0  0  0  0  0  0  0
   11.1972   -2.7500    0.0000 O   0  0  0  0  0  0  0  0  0  0  0  0
   12.9292   -1.7500    0.0000 O   0  0  0  0  0  0  0  0  0  0  0  0
   11.1972    1.2500    0.0000 O   0  0  0  0  0  0  0  0  0  0  0  0
   12.9292    0.2500    0.0000 O   0  0  0  0  0  0  0  0  0  0  0  0
    5.1350   -1.2500    0.0000 O   0  0  0  0  0  0  0  0  0  0  0  0
    9.4651    3.2500    0.0000 O   0  0  0  0  0  0  0  0  0  0  0  0
    9.4651    0.2500    0.0000 O   0  0  0  0  0  0  0  0  0  0  0  0
    7.7167    0.2154    0.0000 O   0  0  0  0  0  0  0  0  0  0  0  0
    5.9350    3.2742    0.0000 O   0  0  0  0  0  0  0  0  0  0  0  0
   12.0632    5.7500    0.0000 O   0  0  0  0  0  0  0  0  0  0  0  0
   13.7953    4.7500    0.0000 O   0  0  0  0  0  0  0  0  0  0  0  0
    6.8671   -4.2500    0.0000 C   0  0  2  0  0  0  0  0  0  0  0  0
    7.7331   -4.7500    0.0000 C   0  0  2  0  0  0  0  0  0  0  0  0
    6.8671   -3.2500    0.0000 C   0  0  2  0  0  0  0  0  0  0  0  0
    8.5991   -4.2500    0.0000 C   0  0  2  0  0  0  0  0  0  0  0  0
    8.5991   -3.2500    0.0000 C   0  0  1  0  0  0  0  0  0  0  0  0
    5.1350   -4.2500    0.0000 C   0  0  2  0  0  0  0  0  0  0  0  0
    4.2690   -4.7500    0.0000 C   0  0  1  0  0  0  0  0  0  0  0  0
    3.4030   -4.2500    0.0000 C   0  0  2  0  0  0  0  0  0  0  0  0
    3.4030   -3.2500    0.0000 C   0  0  1  0  0  0  0  0  0  0  0  0
    4.2690   -2.7500    0.0000 C   0  0  1  0  0  0  0  0  0  0  0  0
   10.3312   -1.2500    0.0000 C   0  0  1  0  0  0  0  0  0  0  0  0
   11.1972   -1.7500    0.0000 C   0  0  2  0  0  0  0  0  0  0  0  0
   12.0632   -1.2500    0.0000 C   0  0  1  0  0  0  0  0  0  0  0  0
    9.4651   -1.7500    0.0000 C   0  0  0  0  0  0  0  0  0  0  0  0
   12.0632   -0.2500    0.0000 C   0  0  2  0  0  0  0  0  0  0  0  0
    6.0010   -2.7500    0.0000 C   0  0  0  0  0  0  0  0  0  0  0  0
   11.1972    0.2500    0.0000 C   0  0  1  0  0  0  0  0  0  0  0  0
    4.2690   -1.7500    0.0000 C   0  0  0  0  0  0  0  0  0  0  0  0
   10.3312    1.7500    0.0000 C   0  0  0  0  0  0  0  0  0  0  0  0
   10.3312    2.7500    0.0000 C   0  0  0  0  0  0  0  0  0  0  0  0
    9.4651    1.2500    0.0000 C   0  0  0  0  0  0  0  0  0  0  0  0
    8.5991    1.7500    0.0000 C   0  0  0  0  0  0  0  0  0  0  0  0
   11.1972    3.2500    0.0000 C   0  0  0  0  0  0  0  0  0  0  0  0
    8.5991    2.7500    0.0000 C   0  0  0  0  0  0  0  0  0  0  0  0
    7.7052    1.2153    0.0000 C   0  0  0  0  0  0  0  0  0  0  0  0
    7.7052    3.2847    0.0000 C   0  0  0  0  0  0  0  0  0  0  0  0
   11.1972    4.2500    0.0000 C   0  0  0  0  0  0  0  0  0  0  0  0
   12.0632    2.7500    0.0000 C   0  0  0  0  0  0  0  0  0  0  0  0
    6.7991    1.7292    0.0000 C   0  0  0  0  0  0  0  0  0  0  0  0
    6.7991    2.7708    0.0000 C   0  0  0  0  0  0  0  0  0  0  0  0
   12.0632    4.7500    0.0000 C   0  0  0  0  0  0  0  0  0  0  0  0
   12.9292    3.2500    0.0000 C   0  0  0  0  0  0  0  0  0  0  0  0
   12.9292    4.2500    0.0000 C   0  0  0  0  0  0  0  0  0  0  0  0
    6.3301   -3.9400    0.0000 H   0  0  0  0  0  0  0  0  0  0  0  0
    7.1962   -5.0600    0.0000 H   0  0  0  0  0  0  0  0  0  0  0  0
    6.8671   -2.6300    0.0000 H   0  0  0  0  0  0  0  0  0  0  0  0
    8.5991   -4.8700    0.0000 H   0  0  0  0  0  0  0  0  0  0  0  0
    8.5991   -2.6300    0.0000 H   0  0  0  0  0  0  0  0  0  0  0  0
    5.1350   -4.8700    0.0000 H   0  0  0  0  0  0  0  0  0  0  0  0
    3.7320   -5.0600    0.0000 H   0  0  0  0  0  0  0  0  0  0  0  0
    2.8660   -3.9400    0.0000 H   0  0  0  0  0  0  0  0  0  0  0  0
    3.4030   -2.6300    0.0000 H   0  0  0  0  0  0  0  0  0  0  0  0
    9.7942   -0.9400    0.0000 H   0  0  0  0  0  0  0  0  0  0  0  0
    4.8059   -2.4400    0.0000 H   0  0  0  0  0  0  0  0  0  0  0  0
   11.7341   -2.0600    0.0000 H   0  0  0  0  0  0  0  0  0  0  0  0
   12.0632   -1.8700    0.0000 H   0  0  0  0  0  0  0  0  0  0  0  0
    9.2531   -1.1674    0.0000 H   0  0  0  0  0  0  0  0  0  0  0  0
    8.8546   -1.8577    0.0000 H   0  0  0  0  0  0  0  0  0  0  0  0
   12.6002   -0.5600    0.0000 H   0  0  0  0  0  0  0  0  0  0  0  0
    6.3110   -2.2131    0.0000 H   0  0  0  0  0  0  0  0  0  0  0  0
    5.4641   -2.4400    0.0000 H   0  0  0  0  0  0  0  0  0  0  0  0
    5.6910   -3.2869    0.0000 H   0  0  0  0  0  0  0  0  0  0  0  0
   11.7341    0.5600    0.0000 H   0  0  0  0  0  0  0  0  0  0  0  0
    4.0569   -1.1674    0.0000 H   0  0  0  0  0  0  0  0  0  0  0  0
    3.6584   -1.8577    0.0000 H   0  0  0  0  0  0  0  0  0  0  0  0
    8.2700   -6.0600    0.0000 H   0  0  0  0  0  0  0  0  0  0  0  0
   10.0021   -4.4400    0.0000 H   0  0  0  0  0  0  0  0  0  0  0  0
    3.7320   -6.0600    0.0000 H   0  0  0  0  0  0  0  0  0  0  0  0
    2.0000   -4.4400    0.0000 H   0  0  0  0  0  0  0  0  0  0  0  0
    2.5369   -2.1300    0.0000 H   0  0  0  0  0  0  0  0  0  0  0  0
   11.7341   -3.0600    0.0000 H   0  0  0  0  0  0  0  0  0  0  0  0
   12.9292   -2.3700    0.0000 H   0  0  0  0  0  0  0  0  0  0  0  0
   13.4662   -0.0600    0.0000 H   0  0  0  0  0  0  0  0  0  0  0  0
    5.1350   -0.6300    0.0000 H   0  0  0  0  0  0  0  0  0  0  0  0
    7.7123    3.9046    0.0000 H   0  0  0  0  0  0  0  0  0  0  0  0
   10.6603    4.5600    0.0000 H   0  0  0  0  0  0  0  0  0  0  0  0
   12.0632    2.1300    0.0000 H   0  0  0  0  0  0  0  0  0  0  0  0
    6.2634    1.4171    0.0000 H   0  0  0  0  0  0  0  0  0  0  0  0
   13.4662    2.9400    0.0000 H   0  0  0  0  0  0  0  0  0  0  0  0
    7.1834   -0.1008    0.0000 H   0  0  0  0  0  0  0  0  0  0  0  0
    5.3969    2.9662    0.0000 H   0  0  0  0  0  0  0  0  0  0  0  0
   11.5263    6.0600    0.0000 H   0  0  0  0  0  0  0  0  0  0  0  0
   13.7953    5.3700    0.0000 H   0  0  0  0  0  0  0  0  0  0  0  0
 22  1  1  1  0  0  0
 27  1  1  1  0  0  0
  2 24  1  0  0  0  0
  2 26  1  0  0  0  0
  3 27  1  0  0  0  0
  3 31  1  0  0  0  0
 26  4  1  1  0  0  0
  4 35  1  0  0  0  0
  5 32  1  0  0  0  0
  5 38  1  0  0  0  0
 23  6  1  6  0  0  0
  6 77  1  0  0  0  0
 25  7  1  6  0  0  0
  7 78  1  0  0  0  0
 28  8  1  6  0  0  0
  8 79  1  0  0  0  0
 29  9  1  1  0  0  0
  9 80  1  0  0  0  0
 30 10  1  6  0  0  0
 10 81  1  0  0  0  0
 33 11  1  6  0  0  0
 11 82  1  0  0  0  0
 34 12  1  1  0  0  0
 12 83  1  0  0  0  0
 38 13  1  1  0  0  0
 13 40  1  0  0  0  0
 36 14  1  6  0  0  0
 14 84  1  0  0  0  0
 15 39  1  0  0  0  0
 15 85  1  0  0  0  0
 16 41  1  0  0  0  0
 16 45  1  0  0  0  0
 17 42  2  0  0  0  0
 18 46  1  0  0  0  0
 18 91  1  0  0  0  0
 19 51  1  0  0  0  0
 19 92  1  0  0  0  0
 20 52  1  0  0  0  0
 20 93  1  0  0  0  0
 21 54  1  0  0  0  0
 21 94  1  0  0  0  0
 22 23  1  0  0  0  0
 22 24  1  0  0  0  0
 22 55  1  0  0  0  0
 23 25  1  0  0  0  0
 23 56  1  0  0  0  0
 24 37  1  6  0  0  0
 24 57  1  0  0  0  0
 25 26  1  0  0  0  0
 25 58  1  0  0  0  0
 26 59  1  0  0  0  0
 27 28  1  0  0  0  0
 27 60  1  0  0  0  0
 28 29  1  0  0  0  0
 28 61  1  0  0  0  0
 29 30  1  0  0  0  0
 29 62  1  0  0  0  0
 30 31  1  0  0  0  0
 30 63  1  0  0  0  0
 31 39  1  1  0  0  0
 31 65  1  0  0  0  0
 32 33  1  0  0  0  0
 32 35  1  1  0  0  0
 32 64  1  0  0  0  0
 33 34  1  0  0  0  0
 33 66  1  0  0  0  0
 34 36  1  0  0  0  0
 34 67  1  0  0  0  0
 35 68  1  0  0  0  0
 35 69  1  0  0  0  0
 36 38  1  0  0  0  0
 36 70  1  0  0  0  0
 37 71  1  0  0  0  0
 37 72  1  0  0  0  0
 37 73  1  0  0  0  0
 38 74  1  0  0  0  0
 39 75  1  0  0  0  0
 39 76  1  0  0  0  0
 40 41  2  0  0  0  0
 40 42  1  0  0  0  0
 41 44  1  0  0  0  0
 42 43  1  0  0  0  0
 43 45  1  0  0  0  0
 43 46  2  0  0  0  0
 44 48  2  0  0  0  0
 44 49  1  0  0  0  0
 45 47  2  0  0  0  0
 46 50  1  0  0  0  0
 47 51  1  0  0  0  0
 47 86  1  0  0  0  0
 48 52  1  0  0  0  0
 48 87  1  0  0  0  0
 49 53  2  0  0  0  0
 49 88  1  0  0  0  0
 50 51  2  0  0  0  0
 50 89  1  0  0  0  0
 52 54  2  0  0  0  0
 53 54  1  0  0  0  0
 53 90  1  0  0  0  0
M  END
> <PUBCHEM_COMPOUND_CID>
102332276

> <PUBCHEM_COMPOUND_CANONICALIZED>
1

> <PUBCHEM_CACTVS_COMPLEXITY>
1320

> <PUBCHEM_CACTVS_HBOND_ACCEPTOR>
21

> <PUBCHEM_CACTVS_HBOND_DONOR>
13

> <PUBCHEM_CACTVS_ROTATABLE_BOND>
9

> <PUBCHEM_CACTVS_SUBSKEYS>
AAADcfB8PgAAAAAAAAAAAAAAAAAAAAAAAAA0aJECAAAAAACBQAAAGgAACAAADBSwmAMyDoAABgCIAqBSAAICCAAkIAAIiAFGiMgdNzaGNR6ieWGl4BUPuQfI7LzOIAABCAAIQABAAAIQABCAAAAAAAAAAA==

> <PUBCHEM_IUPAC_OPENEYE_NAME>
3-[(2S,3R,4S,5S,6R)-6-[[(2R,3R,4S,5R,6S)-3,4-dihydroxy-6-methyl-5-[(2S,3R,4S,5S,6R)-3,4,5-trihydroxy-6-(hydroxymethyl)tetrahydropyran-2-yl]oxy-tetrahydropyran-2-yl]oxymethyl]-3,4,5-trihydroxy-tetrahydropyran-2-yl]oxy-2-(3,4-dihydroxyphenyl)-5,7-dihydroxy-chromen-4-one

> <PUBCHEM_IUPAC_CAS_NAME>
3-[[(2S,3R,4S,5S,6R)-6-[[(2R,3R,4S,5R,6S)-3,4-dihydroxy-6-methyl-5-[[(2S,3R,4S,5S,6R)-3,4,5-trihydroxy-6-(hydroxymethyl)-2-oxanyl]oxy]-2-oxanyl]oxymethyl]-3,4,5-trihydroxy-2-oxanyl]oxy]-2-(3,4-dihydroxyphenyl)-5,7-dihydroxy-1-benzopyran-4-one

> <PUBCHEM_IUPAC_NAME_MARKUP>
3-[(2<I>S</I>,3<I>R</I>,4<I>S</I>,5<I>S</I>,6<I>R</I>)-6-[[(2<I>R</I>,3<I>R</I>,4<I>S</I>,5<I>R</I>,6<I>S</I>)-3,4-dihydroxy-6-methyl-5-[(2<I>S</I>,3<I>R</I>,4<I>S</I>,5<I>S</I>,6<I>R</I>)-3,4,5-trihydroxy-6-(hydroxymethyl)oxan-2-yl]oxyoxan-2-yl]oxymethyl]-3,4,5-trihydroxyoxan-2-yl]oxy-2-(3,4-dihydroxyphenyl)-5,7-dihydroxychromen-4-one

> <PUBCHEM_IUPAC_NAME>
3-[(2S,3R,4S,5S,6R)-6-[[(2R,3R,4S,5R,6S)-3,4-dihydroxy-6-methyl-5-[(2S,3R,4S,5S,6R)-3,4,5-trihydroxy-6-(hydroxymethyl)oxan-2-yl]oxyoxan-2-yl]oxymethyl]-3,4,5-trihydroxyoxan-2-yl]oxy-2-(3,4-dihydroxyphenyl)-5,7-dihydroxychromen-4-one

> <PUBCHEM_IUPAC_SYSTEMATIC_NAME>
2-[3,4-bis(oxidanyl)phenyl]-3-[(2S,3R,4S,5S,6R)-6-[[(2R,3R,4S,5R,6S)-5-[(2S,3R,4S,5S,6R)-6-(hydroxymethyl)-3,4,5-tris(oxidanyl)oxan-2-yl]oxy-6-methyl-3,4-bis(oxidanyl)oxan-2-yl]oxymethyl]-3,4,5-tris(oxidanyl)oxan-2-yl]oxy-5,7-bis(oxidanyl)chromen-4-one

> <PUBCHEM_IUPAC_TRADITIONAL_NAME>
3-[(2S,3R,4S,5S,6R)-6-[[(2R,3R,4S,5R,6S)-3,4-dihydroxy-6-methyl-5-[(2S,3R,4S,5S,6R)-3,4,5-trihydroxy-6-methylol-tetrahydropyran-2-yl]oxy-tetrahydropyran-2-yl]oxymethyl]-3,4,5-trihydroxy-tetrahydropyran-2-yl]oxy-2-(3,4-dihydroxyphenyl)-5,7-dihydroxy-chromone

> <PUBCHEM_IUPAC_INCHI>
InChI=1S/C33H40O21/c1-9-28(53-32-25(45)22(42)19(39)16(7-34)51-32)24(44)27(47)31(49-9)48-8-17-20(40)23(43)26(46)33(52-17)54-30-21(41)18-14(38)5-11(35)6-15(18)50-29(30)10-2-3-12(36)13(37)4-10/h2-6,9,16-17,19-20,22-28,31-40,42-47H,7-8H2,1H3/t9-,16+,17+,19+,20+,22-,23-,24-,25+,26+,27+,28-,31+,32-,33-/m0/s1

> <PUBCHEM_IUPAC_INCHIKEY>
MQXXKEBHYDWCDM-UIGCYNSSSA-N

> <PUBCHEM_XLOGP3_AA>
-2.9

> <PUBCHEM_EXACT_MASS>
772.206208

> <PUBCHEM_MOLECULAR_FORMULA>
C33H40O21

> <PUBCHEM_MOLECULAR_WEIGHT>
772.7

> <PUBCHEM_OPENEYE_CAN_SMILES>
CC1C(C(C(C(O1)OCC2C(C(C(C(O2)OC3=C(OC4=CC(=CC(=C4C3=O)O)O)C5=CC(=C(C=C5)O)O)O)O)O)O)O)OC6C(C(C(C(O6)CO)O)O)O

> <PUBCHEM_OPENEYE_ISO_SMILES>
C[C@H]1[C@@H]([C@H]([C@H]([C@@H](O1)OC[C@@H]2[C@H]([C@@H]([C@H]([C@@H](O2)OC3=C(OC4=CC(=CC(=C4C3=O)O)O)C5=CC(=C(C=C5)O)O)O)O)O)O)O)O[C@H]6[C@@H]([C@H]([C@@H]([C@H](O6)CO)O)O)O

> <PUBCHEM_CACTVS_TPSA>
345

> <PUBCHEM_MONOISOTOPIC_WEIGHT>
772.206208

> <PUBCHEM_TOTAL_CHARGE>
0

> <PUBCHEM_HEAVY_ATOM_COUNT>
54

> <PUBCHEM_ATOM_DEF_STEREO_COUNT>
15

> <PUBCHEM_ATOM_UDEF_STEREO_COUNT>
0

> <PUBCHEM_BOND_DEF_STEREO_COUNT>
0

> <PUBCHEM_BOND_UDEF_STEREO_COUNT>
0

> <PUBCHEM_ISOTOPIC_ATOM_COUNT>
0

> <PUBCHEM_COMPONENT_COUNT>
1

> <PUBCHEM_CACTVS_TAUTO_COUNT>
-1

> <PUBCHEM_COORDINATE_TYPE>
1
5
255

> <PUBCHEM_BONDANNOTATIONS>
22  1  5
27  1  5
30  10  6
33  11  6
34  12  5
38  13  5
36  14  6
16  41  8
16  45  8
24  37  6
31  39  5
32  35  5
26  4  5
40  41  8
40  42  8
42  43  8
43  45  8
43  46  8
44  48  8
44  49  8
45  47  8
46  50  8
47  51  8
48  52  8
49  53  8
50  51  8
52  54  8
53  54  8
23  6  6
25  7  6
28  8  6
29  9  5

$$$$
