11622059
  -OEChem-09092002032D

135141  0     1  0  0  0  0  0999 V2000
   11.3478    5.1118    0.0000 O   0  0  0  0  0  0  0  0  0  0  0  0
   11.3503    4.4591    0.0000 O   0  0  0  0  0  0  0  0  0  0  0  0
    8.7213    6.9568    0.0000 O   0  0  0  0  0  0  0  0  0  0  0  0
    7.7624    5.7716    0.0000 O   0  0  0  0  0  0  0  0  0  0  0  0
   10.4010    8.3347    0.0000 O   0  0  0  0  0  0  0  0  0  0  0  0
    9.4651   -0.4185    0.0000 O   0  0  0  0  0  0  0  0  0  0  0  0
    7.7331   -0.4185    0.0000 O   0  0  0  0  0  0  0  0  0  0  0  0
    9.3799    9.7338    0.0000 O   0  0  0  0  0  0  0  0  0  0  0  0
    7.7331   -3.4185    0.0000 O   0  0  0  0  0  0  0  0  0  0  0  0
    6.0010   -2.4185    0.0000 O   0  0  0  0  0  0  0  0  0  0  0  0
    6.8671   -3.9185    0.0000 O   0  0  0  0  0  0  0  0  0  0  0  0
    4.2690   -5.4185    0.0000 O   0  0  0  0  0  0  0  0  0  0  0  0
    6.0010   -6.4185    0.0000 O   0  0  0  0  0  0  0  0  0  0  0  0
    4.2690   -6.4185    0.0000 O   0  0  0  0  0  0  0  0  0  0  0  0
    6.0010   -8.4185    0.0000 O   0  0  0  0  0  0  0  0  0  0  0  0
    4.2690   -9.4185    0.0000 O   0  0  0  0  0  0  0  0  0  0  0  0
    2.5369   -8.4185    0.0000 O   0  0  0  0  0  0  0  0  0  0  0  0
   10.3623    5.2817    0.0000 C   0  0  2  0  0  0  0  0  0  0  0  0
    9.4944    5.7783    0.0000 C   0  0  1  0  0  0  0  0  0  0  0  0
   10.3662    4.2817    0.0000 C   0  0  2  0  0  0  0  0  0  0  0  0
    9.5021    3.7783    0.0000 C   0  0  1  0  0  0  0  0  0  0  0  0
    9.4901    2.7368    0.0000 C   0  0  2  0  0  0  0  0  0  0  0  0
    9.6999    6.7509    0.0000 C   0  0  2  0  0  0  0  0  0  0  0  0
    8.6303    5.2750    0.0000 C   0  0  1  0  0  0  0  0  0  0  0  0
    8.6342    4.2750    0.0000 C   0  0  0  0  0  0  0  0  0  0  0  0
   10.3901    2.2125    0.0000 C   0  0  1  0  0  0  0  0  0  0  0  0
   11.0968    5.9516    0.0000 C   0  0  0  0  0  0  0  0  0  0  0  0
   11.2781    3.7783    0.0000 C   0  0  0  0  0  0  0  0  0  0  0  0
   10.6882    6.8578    0.0000 C   0  0  0  0  0  0  0  0  0  0  0  0
   11.2902    2.7368    0.0000 C   0  0  0  0  0  0  0  0  0  0  0  0
    8.5402    2.2125    0.0000 C   0  0  0  0  0  0  0  0  0  0  0  0
    8.6264    6.2750    0.0000 C   0  0  0  0  0  0  0  0  0  0  0  0
   10.4027    1.1276    0.0000 C   0  0  0  0  0  0  0  0  0  0  0  0
    8.6260    3.2401    0.0000 C   0  0  0  0  0  0  0  0  0  0  0  0
    9.5932    7.7452    0.0000 C   0  0  2  0  0  0  0  0  0  0  0  0
    8.5276    1.1276    0.0000 C   0  0  0  0  0  0  0  0  0  0  0  0
    9.4651    0.5815    0.0000 C   0  0  2  0  0  0  0  0  0  0  0  0
    8.6788    8.1500    0.0000 C   0  0  0  0  0  0  0  0  0  0  0  0
    8.5991   -0.9185    0.0000 C   0  0  2  0  0  0  0  0  0  0  0  0
   10.2943    9.3290    0.0000 C   0  0  0  0  0  0  0  0  0  0  0  0
    8.5991   -1.9185    0.0000 C   0  0  0  0  0  0  0  0  0  0  0  0
    7.7331   -2.4185    0.0000 C   0  0  1  0  0  0  0  0  0  0  0  0
   11.1021    9.9185    0.0000 C   0  0  0  0  0  0  0  0  0  0  0  0
    6.8671   -0.9185    0.0000 C   0  0  1  0  0  0  0  0  0  0  0  0
    6.8671   -1.9185    0.0000 C   0  0  1  0  0  0  0  0  0  0  0  0
    6.0010   -0.4185    0.0000 C   0  0  0  0  0  0  0  0  0  0  0  0
    6.0010   -3.4185    0.0000 C   0  0  2  0  0  0  0  0  0  0  0  0
    8.5991   -3.9185    0.0000 C   0  0  0  0  0  0  0  0  0  0  0  0
    5.1350   -3.9185    0.0000 C   0  0  0  0  0  0  0  0  0  0  0  0
    5.1350   -4.9185    0.0000 C   0  0  1  0  0  0  0  0  0  0  0  0
    6.8671   -4.9185    0.0000 C   0  0  1  0  0  0  0  0  0  0  0  0
    6.0010   -5.4185    0.0000 C   0  0  1  0  0  0  0  0  0  0  0  0
    7.7331   -5.4185    0.0000 C   0  0  0  0  0  0  0  0  0  0  0  0
    5.1350   -6.9185    0.0000 C   0  0  2  0  0  0  0  0  0  0  0  0
    3.4030   -4.9185    0.0000 C   0  0  0  0  0  0  0  0  0  0  0  0
    5.1350   -7.9185    0.0000 C   0  0  1  0  0  0  0  0  0  0  0  0
    4.2690   -8.4185    0.0000 C   0  0  2  0  0  0  0  0  0  0  0  0
    3.4030   -6.9185    0.0000 C   0  0  1  0  0  0  0  0  0  0  0  0
    3.4030   -7.9185    0.0000 C   0  0  1  0  0  0  0  0  0  0  0  0
    2.5369   -6.4185    0.0000 C   0  0  0  0  0  0  0  0  0  0  0  0
    3.4030   -9.9185    0.0000 C   0  0  0  0  0  0  0  0  0  0  0  0
   10.2366    3.3505    0.0000 H   0  0  0  0  0  0  0  0  0  0  0  0
    8.0946    4.9629    0.0000 H   0  0  0  0  0  0  0  0  0  0  0  0
    8.0232    4.3803    0.0000 H   0  0  0  0  0  0  0  0  0  0  0  0
    8.4244    3.6916    0.0000 H   0  0  0  0  0  0  0  0  0  0  0  0
   11.1295    1.7932    0.0000 H   0  0  0  0  0  0  0  0  0  0  0  0
   11.4642    5.4521    0.0000 H   0  0  0  0  0  0  0  0  0  0  0  0
   11.6321    6.2644    0.0000 H   0  0  0  0  0  0  0  0  0  0  0  0
   11.8902    3.6793    0.0000 H   0  0  0  0  0  0  0  0  0  0  0  0
   11.4804    4.3644    0.0000 H   0  0  0  0  0  0  0  0  0  0  0  0
   11.2770    7.0518    0.0000 H   0  0  0  0  0  0  0  0  0  0  0  0
   10.5571    7.4638    0.0000 H   0  0  0  0  0  0  0  0  0  0  0  0
   11.5060    2.1556    0.0000 H   0  0  0  0  0  0  0  0  0  0  0  0
   11.8998    2.8499    0.0000 H   0  0  0  0  0  0  0  0  0  0  0  0
    8.3379    2.7986    0.0000 H   0  0  0  0  0  0  0  0  0  0  0  0
    7.9281    2.1135    0.0000 H   0  0  0  0  0  0  0  0  0  0  0  0
    8.9344    6.8131    0.0000 H   0  0  0  0  0  0  0  0  0  0  0  0
    8.0883    6.5829    0.0000 H   0  0  0  0  0  0  0  0  0  0  0  0
    8.3185    5.7369    0.0000 H   0  0  0  0  0  0  0  0  0  0  0  0
   10.6185    0.5463    0.0000 H   0  0  0  0  0  0  0  0  0  0  0  0
   11.0123    1.2407    0.0000 H   0  0  0  0  0  0  0  0  0  0  0  0
    8.9380    3.7758    0.0000 H   0  0  0  0  0  0  0  0  0  0  0  0
    8.0902    3.5522    0.0000 H   0  0  0  0  0  0  0  0  0  0  0  0
    8.3139    2.7044    0.0000 H   0  0  0  0  0  0  0  0  0  0  0  0
   10.1601    7.4943    0.0000 H   0  0  0  0  0  0  0  0  0  0  0  0
    7.9180    1.2407    0.0000 H   0  0  0  0  0  0  0  0  0  0  0  0
    8.3118    0.5463    0.0000 H   0  0  0  0  0  0  0  0  0  0  0  0
   11.7445    5.5883    0.0000 H   0  0  0  0  0  0  0  0  0  0  0  0
   11.9338    4.2493    0.0000 H   0  0  0  0  0  0  0  0  0  0  0  0
   10.0027    0.2725    0.0000 H   0  0  0  0  0  0  0  0  0  0  0  0
    8.5284    7.5460    0.0000 H   0  0  0  0  0  0  0  0  0  0  0  0
    7.2266    5.4596    0.0000 H   0  0  0  0  0  0  0  0  0  0  0  0
    8.9298    8.7170    0.0000 H   0  0  0  0  0  0  0  0  0  0  0  0
    8.1119    8.4010    0.0000 H   0  0  0  0  0  0  0  0  0  0  0  0
    8.4278    7.5831    0.0000 H   0  0  0  0  0  0  0  0  0  0  0  0
    8.5991   -0.2985    0.0000 H   0  0  0  0  0  0  0  0  0  0  0  0
    8.8112   -2.5012    0.0000 H   0  0  0  0  0  0  0  0  0  0  0  0
    9.2097   -1.8109    0.0000 H   0  0  0  0  0  0  0  0  0  0  0  0
    8.2700   -2.7285    0.0000 H   0  0  0  0  0  0  0  0  0  0  0  0
   11.4676    9.4177    0.0000 H   0  0  0  0  0  0  0  0  0  0  0  0
   11.6029   10.2840    0.0000 H   0  0  0  0  0  0  0  0  0  0  0  0
   10.7366   10.4194    0.0000 H   0  0  0  0  0  0  0  0  0  0  0  0
    6.8671   -0.2985    0.0000 H   0  0  0  0  0  0  0  0  0  0  0  0
    6.8671   -2.5385    0.0000 H   0  0  0  0  0  0  0  0  0  0  0  0
    6.3110    0.1184    0.0000 H   0  0  0  0  0  0  0  0  0  0  0  0
    5.4641   -0.1085    0.0000 H   0  0  0  0  0  0  0  0  0  0  0  0
    5.6910   -0.9555    0.0000 H   0  0  0  0  0  0  0  0  0  0  0  0
    5.4641   -3.1085    0.0000 H   0  0  0  0  0  0  0  0  0  0  0  0
    8.2891   -4.4555    0.0000 H   0  0  0  0  0  0  0  0  0  0  0  0
    9.1360   -4.2285    0.0000 H   0  0  0  0  0  0  0  0  0  0  0  0
    8.9091   -3.3816    0.0000 H   0  0  0  0  0  0  0  0  0  0  0  0
    4.9230   -3.3359    0.0000 H   0  0  0  0  0  0  0  0  0  0  0  0
    4.5244   -4.0262    0.0000 H   0  0  0  0  0  0  0  0  0  0  0  0
    5.1350   -5.5385    0.0000 H   0  0  0  0  0  0  0  0  0  0  0  0
    7.4040   -4.6085    0.0000 H   0  0  0  0  0  0  0  0  0  0  0  0
    6.5380   -5.7285    0.0000 H   0  0  0  0  0  0  0  0  0  0  0  0
    7.4231   -5.9555    0.0000 H   0  0  0  0  0  0  0  0  0  0  0  0
    8.2700   -5.7285    0.0000 H   0  0  0  0  0  0  0  0  0  0  0  0
    8.0431   -4.8816    0.0000 H   0  0  0  0  0  0  0  0  0  0  0  0
    5.1350   -6.2985    0.0000 H   0  0  0  0  0  0  0  0  0  0  0  0
    3.7130   -4.3816    0.0000 H   0  0  0  0  0  0  0  0  0  0  0  0
    2.8660   -4.6085    0.0000 H   0  0  0  0  0  0  0  0  0  0  0  0
    3.0930   -5.4555    0.0000 H   0  0  0  0  0  0  0  0  0  0  0  0
    5.1350   -8.5385    0.0000 H   0  0  0  0  0  0  0  0  0  0  0  0
    3.7320   -8.7285    0.0000 H   0  0  0  0  0  0  0  0  0  0  0  0
    3.4030   -6.2985    0.0000 H   0  0  0  0  0  0  0  0  0  0  0  0
    3.4030   -8.5385    0.0000 H   0  0  0  0  0  0  0  0  0  0  0  0
    6.0010   -9.0385    0.0000 H   0  0  0  0  0  0  0  0  0  0  0  0
    2.8469   -5.8816    0.0000 H   0  0  0  0  0  0  0  0  0  0  0  0
    2.0000   -6.1085    0.0000 H   0  0  0  0  0  0  0  0  0  0  0  0
    2.2269   -6.9555    0.0000 H   0  0  0  0  0  0  0  0  0  0  0  0
    2.0000   -8.1085    0.0000 H   0  0  0  0  0  0  0  0  0  0  0  0
    3.0930   -9.3816    0.0000 H   0  0  0  0  0  0  0  0  0  0  0  0
    2.8660  -10.2285    0.0000 H   0  0  0  0  0  0  0  0  0  0  0  0
    3.7130  -10.4555    0.0000 H   0  0  0  0  0  0  0  0  0  0  0  0
 18  1  1  1  0  0  0
  1 88  1  0  0  0  0
 20  2  1  1  0  0  0
  2 89  1  0  0  0  0
 23  3  1  1  0  0  0
  3 91  1  0  0  0  0
 24  4  1  1  0  0  0
  4 92  1  0  0  0  0
 35  5  1  6  0  0  0
  5 40  1  0  0  0  0
 37  6  1  1  0  0  0
 39  6  1  1  0  0  0
  7 39  1  0  0  0  0
  7 44  1  0  0  0  0
  8 40  2  0  0  0  0
 42  9  1  6  0  0  0
  9 48  1  0  0  0  0
 45 10  1  6  0  0  0
 47 10  1  6  0  0  0
 11 47  1  0  0  0  0
 11 51  1  0  0  0  0
 50 12  1  1  0  0  0
 12 55  1  0  0  0  0
 52 13  1  1  0  0  0
 54 13  1  1  0  0  0
 14 54  1  0  0  0  0
 14 58  1  0  0  0  0
 56 15  1  6  0  0  0
 15128  1  0  0  0  0
 57 16  1  1  0  0  0
 16 61  1  0  0  0  0
 59 17  1  6  0  0  0
 17132  1  0  0  0  0
 18 19  1  0  0  0  0
 18 20  1  0  0  0  0
 18 27  1  0  0  0  0
 19 23  1  0  0  0  0
 19 24  1  0  0  0  0
 19 32  1  1  0  0  0
 20 21  1  0  0  0  0
 20 28  1  0  0  0  0
 21 22  1  0  0  0  0
 21 25  1  0  0  0  0
 21 62  1  6  0  0  0
 22 26  1  0  0  0  0
 22 31  1  0  0  0  0
 22 34  1  1  0  0  0
 23 29  1  0  0  0  0
 23 35  1  0  0  0  0
 24 25  1  0  0  0  0
 24 63  1  0  0  0  0
 25 64  1  0  0  0  0
 25 65  1  0  0  0  0
 26 30  1  0  0  0  0
 26 33  1  0  0  0  0
 26 66  1  6  0  0  0
 27 29  1  0  0  0  0
 27 67  1  0  0  0  0
 27 68  1  0  0  0  0
 28 30  1  0  0  0  0
 28 69  1  0  0  0  0
 28 70  1  0  0  0  0
 29 71  1  0  0  0  0
 29 72  1  0  0  0  0
 30 73  1  0  0  0  0
 30 74  1  0  0  0  0
 31 36  1  0  0  0  0
 31 75  1  0  0  0  0
 31 76  1  0  0  0  0
 32 77  1  0  0  0  0
 32 78  1  0  0  0  0
 32 79  1  0  0  0  0
 33 37  1  0  0  0  0
 33 80  1  0  0  0  0
 33 81  1  0  0  0  0
 34 82  1  0  0  0  0
 34 83  1  0  0  0  0
 34 84  1  0  0  0  0
 35 38  1  0  0  0  0
 35 85  1  0  0  0  0
 36 37  1  0  0  0  0
 36 86  1  0  0  0  0
 36 87  1  0  0  0  0
 37 90  1  0  0  0  0
 38 93  1  0  0  0  0
 38 94  1  0  0  0  0
 38 95  1  0  0  0  0
 39 41  1  0  0  0  0
 39 96  1  0  0  0  0
 40 43  1  0  0  0  0
 41 42  1  0  0  0  0
 41 97  1  0  0  0  0
 41 98  1  0  0  0  0
 42 45  1  0  0  0  0
 42 99  1  0  0  0  0
 43100  1  0  0  0  0
 43101  1  0  0  0  0
 43102  1  0  0  0  0
 44 45  1  0  0  0  0
 44 46  1  1  0  0  0
 44103  1  0  0  0  0
 45104  1  0  0  0  0
 46105  1  0  0  0  0
 46106  1  0  0  0  0
 46107  1  0  0  0  0
 47 49  1  0  0  0  0
 47108  1  0  0  0  0
 48109  1  0  0  0  0
 48110  1  0  0  0  0
 48111  1  0  0  0  0
 49 50  1  0  0  0  0
 49112  1  0  0  0  0
 49113  1  0  0  0  0
 50 52  1  0  0  0  0
 50114  1  0  0  0  0
 51 52  1  0  0  0  0
 51 53  1  6  0  0  0
 51115  1  0  0  0  0
 52116  1  0  0  0  0
 53117  1  0  0  0  0
 53118  1  0  0  0  0
 53119  1  0  0  0  0
 54 56  1  0  0  0  0
 54120  1  0  0  0  0
 55121  1  0  0  0  0
 55122  1  0  0  0  0
 55123  1  0  0  0  0
 56 57  1  0  0  0  0
 56124  1  0  0  0  0
 57 59  1  0  0  0  0
 57125  1  0  0  0  0
 58 59  1  0  0  0  0
 58 60  1  1  0  0  0
 58126  1  0  0  0  0
 59127  1  0  0  0  0
 60129  1  0  0  0  0
 60130  1  0  0  0  0
 60131  1  0  0  0  0
 61133  1  0  0  0  0
 61134  1  0  0  0  0
 61135  1  0  0  0  0
M  END
> <PUBCHEM_COMPOUND_CID>
11622059

> <PUBCHEM_COMPOUND_CANONICALIZED>
1

> <PUBCHEM_CACTVS_COMPLEXITY>
1540

> <PUBCHEM_CACTVS_HBOND_ACCEPTOR>
17

> <PUBCHEM_CACTVS_HBOND_DONOR>
6

> <PUBCHEM_CACTVS_ROTATABLE_BOND>
12

> <PUBCHEM_CACTVS_SUBSKEYS>
AAADcfB8PgAAAAAAAAAAAAAAAAAAAYAAAAA0aNECAAAAAGDAAAAAGgAACAAAD1SwgAMCCAAABgAIAACQCAAAAAAAAAAAAAAAAAAREAIAAAAiQAAFAAAHAAHA4PwPgAAAAAAAAADCAAYQADCAAYQADAAAAA==

> <PUBCHEM_IUPAC_OPENEYE_NAME>
[(1S)-1-[(3S,5S,8S,9R,10S,12R,13R,14R,17S)-3-[(2R,4S,5R,6R)-5-[(2S,4S,5R,6R)-5-[(2S,3R,4S,5R,6R)-3,5-dihydroxy-4-methoxy-6-methyl-tetrahydropyran-2-yl]oxy-4-methoxy-6-methyl-tetrahydropyran-2-yl]oxy-4-methoxy-6-methyl-tetrahydropyran-2-yl]oxy-8,12,14,17-tetrahydroxy-10,13-dimethyl-1,2,3,4,5,6,7,9,11,12,15,16-dodecahydrocyclopenta[a]phenanthren-17-yl]ethyl] acetate

> <PUBCHEM_IUPAC_CAS_NAME>
acetic acid [(1S)-1-[(3S,5S,8S,9R,10S,12R,13R,14R,17S)-3-[[(2R,4S,5R,6R)-5-[[(2S,4S,5R,6R)-5-[[(2S,3R,4S,5R,6R)-3,5-dihydroxy-4-methoxy-6-methyl-2-oxanyl]oxy]-4-methoxy-6-methyl-2-oxanyl]oxy]-4-methoxy-6-methyl-2-oxanyl]oxy]-8,12,14,17-tetrahydroxy-10,13-dimethyl-1,2,3,4,5,6,7,9,11,12,15,16-dodecahydrocyclopenta[a]phenanthren-17-yl]ethyl] ester

> <PUBCHEM_IUPAC_NAME_MARKUP>
[(1<I>S</I>)-1-[(3<I>S</I>,5<I>S</I>,8<I>S</I>,9<I>R</I>,10<I>S</I>,12<I>R</I>,13<I>R</I>,14<I>R</I>,17<I>S</I>)-3-[(2<I>R</I>,4<I>S</I>,5<I>R</I>,6<I>R</I>)-5-[(2<I>S</I>,4<I>S</I>,5<I>R</I>,6<I>R</I>)-5-[(2<I>S</I>,3<I>R</I>,4<I>S</I>,5<I>R</I>,6<I>R</I>)-3,5-dihydroxy-4-methoxy-6-methyloxan-2-yl]oxy-4-methoxy-6-methyloxan-2-yl]oxy-4-methoxy-6-methyloxan-2-yl]oxy-8,12,14,17-tetrahydroxy-10,13-dimethyl-1,2,3,4,5,6,7,9,11,12,15,16-dodecahydrocyclopenta[a]phenanthren-17-yl]ethyl] acetate

> <PUBCHEM_IUPAC_NAME>
[(1S)-1-[(3S,5S,8S,9R,10S,12R,13R,14R,17S)-3-[(2R,4S,5R,6R)-5-[(2S,4S,5R,6R)-5-[(2S,3R,4S,5R,6R)-3,5-dihydroxy-4-methoxy-6-methyloxan-2-yl]oxy-4-methoxy-6-methyloxan-2-yl]oxy-4-methoxy-6-methyloxan-2-yl]oxy-8,12,14,17-tetrahydroxy-10,13-dimethyl-1,2,3,4,5,6,7,9,11,12,15,16-dodecahydrocyclopenta[a]phenanthren-17-yl]ethyl] acetate

> <PUBCHEM_IUPAC_SYSTEMATIC_NAME>
[(1S)-1-[(3S,5S,8S,9R,10S,12R,13R,14R,17S)-3-[(2R,4S,5R,6R)-4-methoxy-5-[(2S,4S,5R,6R)-4-methoxy-5-[(2S,3R,4S,5R,6R)-4-methoxy-6-methyl-3,5-bis(oxidanyl)oxan-2-yl]oxy-6-methyl-oxan-2-yl]oxy-6-methyl-oxan-2-yl]oxy-10,13-dimethyl-8,12,14,17-tetrakis(oxidanyl)-1,2,3,4,5,6,7,9,11,12,15,16-dodecahydrocyclopenta[a]phenanthren-17-yl]ethyl] ethanoate

> <PUBCHEM_IUPAC_TRADITIONAL_NAME>
acetic acid [(1S)-1-[(3S,5S,8S,9R,10S,12R,13R,14R,17S)-3-[(2R,4S,5R,6R)-5-[(2S,4S,5R,6R)-5-[(2S,3R,4S,5R,6R)-3,5-dihydroxy-4-methoxy-6-methyl-tetrahydropyran-2-yl]oxy-4-methoxy-6-methyl-tetrahydropyran-2-yl]oxy-4-methoxy-6-methyl-tetrahydropyran-2-yl]oxy-8,12,14,17-tetrahydroxy-10,13-dimethyl-1,2,3,4,5,6,7,9,11,12,15,16-dodecahydrocyclopenta[a]phenanthren-17-yl]ethyl] ester

> <PUBCHEM_IUPAC_INCHI>
InChI=1S/C44H74O17/c1-21-34(47)38(54-10)35(48)39(57-21)61-37-23(3)56-33(19-29(37)53-9)60-36-22(2)55-32(18-28(36)52-8)59-27-12-13-40(6)26(17-27)11-14-43(50)30(40)20-31(46)41(7)42(49,15-16-44(41,43)51)24(4)58-25(5)45/h21-24,26-39,46-51H,11-20H2,1-10H3/t21-,22-,23-,24+,26+,27+,28+,29+,30-,31-,32+,33+,34-,35-,36-,37-,38+,39+,40+,41-,42-,43+,44-/m1/s1

> <PUBCHEM_IUPAC_INCHIKEY>
BBPXSUILPKNQKJ-XVMVROSKSA-N

> <PUBCHEM_XLOGP3_AA>
1

> <PUBCHEM_EXACT_MASS>
874.492601

> <PUBCHEM_MOLECULAR_FORMULA>
C44H74O17

> <PUBCHEM_MOLECULAR_WEIGHT>
875

> <PUBCHEM_OPENEYE_CAN_SMILES>
CC1C(C(C(C(O1)OC2C(OC(CC2OC)OC3C(OC(CC3OC)OC4CCC5(C(C4)CCC6(C5CC(C7(C6(CCC7(C(C)OC(=O)C)O)O)C)O)O)C)C)C)O)OC)O

> <PUBCHEM_OPENEYE_ISO_SMILES>
C[C@@H]1[C@H]([C@@H]([C@H]([C@@H](O1)O[C@@H]2[C@H](O[C@H](C[C@@H]2OC)O[C@@H]3[C@H](O[C@H](C[C@@H]3OC)O[C@H]4CC[C@]5([C@H](C4)CC[C@@]6([C@@H]5C[C@H]([C@]7([C@@]6(CC[C@]7([C@H](C)OC(=O)C)O)O)C)O)O)C)C)C)O)OC)O

> <PUBCHEM_CACTVS_TPSA>
231

> <PUBCHEM_MONOISOTOPIC_WEIGHT>
874.492601

> <PUBCHEM_TOTAL_CHARGE>
0

> <PUBCHEM_HEAVY_ATOM_COUNT>
61

> <PUBCHEM_ATOM_DEF_STEREO_COUNT>
23

> <PUBCHEM_ATOM_UDEF_STEREO_COUNT>
0

> <PUBCHEM_BOND_DEF_STEREO_COUNT>
0

> <PUBCHEM_BOND_UDEF_STEREO_COUNT>
0

> <PUBCHEM_ISOTOPIC_ATOM_COUNT>
0

> <PUBCHEM_COMPONENT_COUNT>
1

> <PUBCHEM_CACTVS_TAUTO_COUNT>
-1

> <PUBCHEM_COORDINATE_TYPE>
1
5
255

> <PUBCHEM_BONDANNOTATIONS>
18  1  5
45  10  6
47  10  6
50  12  5
52  13  5
54  13  5
56  15  6
57  16  5
59  17  6
19  32  5
20  2  5
21  62  6
22  34  5
26  66  6
23  3  5
24  4  5
44  46  5
35  5  6
51  53  6
58  60  5
37  6  5
39  6  5
42  9  6

$$$$
