102421939
  -OEChem-09092001232D

147154  0     1  0  0  0  0  0999 V2000
   13.0887    5.2495    0.0000 O   0  0  0  0  0  0  0  0  0  0  0  0
   15.6774    2.7391    0.0000 O   0  0  0  0  0  0  0  0  0  0  0  0
   13.9415    1.7458    0.0000 O   0  0  0  0  0  0  0  0  0  0  0  0
    9.4651    1.1186    0.0000 O   0  0  0  0  0  0  0  0  0  0  0  0
   17.2502    4.5430    0.0000 O   0  0  0  0  0  0  0  0  0  0  0  0
   17.1807    3.5993    0.0000 O   0  0  0  0  0  0  0  0  0  0  0  0
   15.6735    1.7391    0.0000 O   0  0  0  0  0  0  0  0  0  0  0  0
    8.5991   -0.3814    0.0000 O   0  0  0  0  0  0  0  0  0  0  0  0
   11.1972   -1.8814    0.0000 O   0  0  0  0  0  0  0  0  0  0  0  0
    9.4651   -2.8814    0.0000 O   0  0  0  0  0  0  0  0  0  0  0  0
    7.7331   -2.8814    0.0000 O   0  0  0  0  0  0  0  0  0  0  0  0
    9.4651   -4.8814    0.0000 O   0  0  0  0  0  0  0  0  0  0  0  0
    7.7331   -5.8814    0.0000 O   0  0  0  0  0  0  0  0  0  0  0  0
    6.0010   -4.8814    0.0000 O   0  0  0  0  0  0  0  0  0  0  0  0
    4.2690   -5.8814    0.0000 O   0  0  0  0  0  0  0  0  0  0  0  0
    2.5369   -4.8814    0.0000 O   0  0  0  0  0  0  0  0  0  0  0  0
    2.5369   -2.8814    0.0000 O   0  0  0  0  0  0  0  0  0  0  0  0
    5.1350   -1.3814    0.0000 O   0  0  0  0  0  0  0  0  0  0  0  0
   13.9531    4.7458    0.0000 C   0  0  1  0  0  0  0  0  0  0  0  0
   13.0851    4.2491    0.0000 C   0  0  2  0  0  0  0  0  0  0  0  0
   14.8172    4.2424    0.0000 C   0  0  2  0  0  0  0  0  0  0  0  0
   13.0813    3.2491    0.0000 C   0  0  1  0  0  0  0  0  0  0  0  0
   12.1853    2.7179    0.0000 C   0  0  2  0  0  0  0  0  0  0  0  0
   14.1660    5.7168    0.0000 C   0  0  0  0  0  0  0  0  0  0  0  0
   14.8133    3.2424    0.0000 C   0  0  1  0  0  0  0  0  0  0  0  0
   12.1932    4.7872    0.0000 C   0  0  0  0  0  0  0  0  0  0  0  0
   13.9454    2.7458    0.0000 C   0  0  1  0  0  0  0  0  0  0  0  0
   15.5567    4.9067    0.0000 C   0  0  2  0  0  0  0  0  0  0  0  0
   11.2812    3.2352    0.0000 C   0  0  1  0  0  0  0  0  0  0  0  0
   15.1551    5.8160    0.0000 C   0  0  0  0  0  0  0  0  0  0  0  0
   11.2852    4.2768    0.0000 C   0  0  0  0  0  0  0  0  0  0  0  0
   15.6812    3.7391    0.0000 C   0  0  0  0  0  0  0  0  0  0  0  0
   12.2062    1.6331    0.0000 C   0  0  0  0  0  0  0  0  0  0  0  0
   13.0532    2.2212    0.0000 C   0  0  0  0  0  0  0  0  0  0  0  0
   10.3353    2.7036    0.0000 C   0  0  0  0  0  0  0  0  0  0  0  0
   11.2729    1.0798    0.0000 C   0  0  0  0  0  0  0  0  0  0  0  0
   16.5084    5.2136    0.0000 C   0  0  0  0  0  0  0  0  0  0  0  0
   10.3312    1.6186    0.0000 C   0  0  2  0  0  0  0  0  0  0  0  0
   16.7184    6.1914    0.0000 C   0  0  0  0  0  0  0  0  0  0  0  0
   16.6774    2.7352    0.0000 C   0  0  0  0  0  0  0  0  0  0  0  0
   14.8056    1.2424    0.0000 C   0  0  0  0  0  0  0  0  0  0  0  0
    9.4651    0.1186    0.0000 C   0  0  2  0  0  0  0  0  0  0  0  0
   17.1740    1.8673    0.0000 C   0  0  0  0  0  0  0  0  0  0  0  0
   14.8017    0.2424    0.0000 C   0  0  0  0  0  0  0  0  0  0  0  0
   10.3312   -0.3814    0.0000 C   0  0  0  0  0  0  0  0  0  0  0  0
   18.1740    1.8634    0.0000 C   0  0  0  0  0  0  0  0  0  0  0  0
   15.6658   -0.2609    0.0000 C   0  0  0  0  0  0  0  0  0  0  0  0
   16.6707    1.0032    0.0000 C   0  0  0  0  0  0  0  0  0  0  0  0
   13.9338   -0.2542    0.0000 C   0  0  0  0  0  0  0  0  0  0  0  0
   10.3312   -1.3814    0.0000 C   0  0  2  0  0  0  0  0  0  0  0  0
    8.5991   -1.3814    0.0000 C   0  0  1  0  0  0  0  0  0  0  0  0
    9.4651   -1.8814    0.0000 C   0  0  1  0  0  0  0  0  0  0  0  0
   17.1674    0.1353    0.0000 C   0  0  0  0  0  0  0  0  0  0  0  0
   13.9299   -1.2542    0.0000 C   0  0  0  0  0  0  0  0  0  0  0  0
    7.7331   -1.8814    0.0000 C   0  0  0  0  0  0  0  0  0  0  0  0
   12.0632   -1.3814    0.0000 C   0  0  0  0  0  0  0  0  0  0  0  0
    8.5991   -3.3814    0.0000 C   0  0  2  0  0  0  0  0  0  0  0  0
    8.5991   -4.3814    0.0000 C   0  0  1  0  0  0  0  0  0  0  0  0
    7.7331   -4.8814    0.0000 C   0  0  1  0  0  0  0  0  0  0  0  0
    6.8671   -3.3814    0.0000 C   0  0  1  0  0  0  0  0  0  0  0  0
    6.8671   -4.3814    0.0000 C   0  0  1  0  0  0  0  0  0  0  0  0
    6.0010   -2.8814    0.0000 C   0  0  0  0  0  0  0  0  0  0  0  0
    5.1350   -4.3814    0.0000 C   0  0  2  0  0  0  0  0  0  0  0  0
    5.1350   -3.3814    0.0000 C   0  0  0  0  0  0  0  0  0  0  0  0
    4.2690   -4.8814    0.0000 C   0  0  1  0  0  0  0  0  0  0  0  0
    4.2690   -2.8814    0.0000 C   0  0  1  0  0  0  0  0  0  0  0  0
    3.4030   -4.3814    0.0000 C   0  0  2  0  0  0  0  0  0  0  0  0
    3.4030   -3.3814    0.0000 C   0  0  2  0  0  0  0  0  0  0  0  0
    4.2690   -1.8814    0.0000 C   0  0  0  0  0  0  0  0  0  0  0  0
   13.8190    3.6713    0.0000 H   0  0  0  0  0  0  0  0  0  0  0  0
   14.1693    6.3368    0.0000 H   0  0  0  0  0  0  0  0  0  0  0  0
   13.5498    5.7852    0.0000 H   0  0  0  0  0  0  0  0  0  0  0  0
   14.8109    2.6224    0.0000 H   0  0  0  0  0  0  0  0  0  0  0  0
   12.5997    5.2554    0.0000 H   0  0  0  0  0  0  0  0  0  0  0  0
   11.8015    5.2677    0.0000 H   0  0  0  0  0  0  0  0  0  0  0  0
   13.4072    2.4378    0.0000 H   0  0  0  0  0  0  0  0  0  0  0  0
   15.8658    4.3692    0.0000 H   0  0  0  0  0  0  0  0  0  0  0  0
   10.5484    3.6659    0.0000 H   0  0  0  0  0  0  0  0  0  0  0  0
   15.7455    6.0055    0.0000 H   0  0  0  0  0  0  0  0  0  0  0  0
   15.0287    6.4230    0.0000 H   0  0  0  0  0  0  0  0  0  0  0  0
   11.0784    4.8613    0.0000 H   0  0  0  0  0  0  0  0  0  0  0  0
   10.6739    4.1731    0.0000 H   0  0  0  0  0  0  0  0  0  0  0  0
   15.3692    3.2034    0.0000 H   0  0  0  0  0  0  0  0  0  0  0  0
   16.2170    3.4270    0.0000 H   0  0  0  0  0  0  0  0  0  0  0  0
   15.9933    4.2748    0.0000 H   0  0  0  0  0  0  0  0  0  0  0  0
   12.4264    1.0535    0.0000 H   0  0  0  0  0  0  0  0  0  0  0  0
   12.8149    1.7509    0.0000 H   0  0  0  0  0  0  0  0  0  0  0  0
   12.7453    1.6831    0.0000 H   0  0  0  0  0  0  0  0  0  0  0  0
   13.5913    1.9133    0.0000 H   0  0  0  0  0  0  0  0  0  0  0  0
   13.3611    2.7594    0.0000 H   0  0  0  0  0  0  0  0  0  0  0  0
   10.1285    3.2881    0.0000 H   0  0  0  0  0  0  0  0  0  0  0  0
    9.7241    2.5999    0.0000 H   0  0  0  0  0  0  0  0  0  0  0  0
   10.8774    0.6023    0.0000 H   0  0  0  0  0  0  0  0  0  0  0  0
   11.6757    0.6084    0.0000 H   0  0  0  0  0  0  0  0  0  0  0  0
    9.7948    1.9297    0.0000 H   0  0  0  0  0  0  0  0  0  0  0  0
   17.3246    6.0612    0.0000 H   0  0  0  0  0  0  0  0  0  0  0  0
   16.8486    6.7975    0.0000 H   0  0  0  0  0  0  0  0  0  0  0  0
   16.1123    6.3216    0.0000 H   0  0  0  0  0  0  0  0  0  0  0  0
   10.0021    0.4286    0.0000 H   0  0  0  0  0  0  0  0  0  0  0  0
   10.9417   -0.4890    0.0000 H   0  0  0  0  0  0  0  0  0  0  0  0
   10.5432    0.2013    0.0000 H   0  0  0  0  0  0  0  0  0  0  0  0
   18.1716    1.2434    0.0000 H   0  0  0  0  0  0  0  0  0  0  0  0
   18.7940    1.8610    0.0000 H   0  0  0  0  0  0  0  0  0  0  0  0
   18.1764    2.4834    0.0000 H   0  0  0  0  0  0  0  0  0  0  0  0
   15.3538   -0.7966    0.0000 H   0  0  0  0  0  0  0  0  0  0  0  0
   16.2016   -0.5730    0.0000 H   0  0  0  0  0  0  0  0  0  0  0  0
   15.9779    0.2749    0.0000 H   0  0  0  0  0  0  0  0  0  0  0  0
   16.0507    1.0056    0.0000 H   0  0  0  0  0  0  0  0  0  0  0  0
   13.3981    0.0579    0.0000 H   0  0  0  0  0  0  0  0  0  0  0  0
   10.8681   -1.0714    0.0000 H   0  0  0  0  0  0  0  0  0  0  0  0
    8.0622   -1.0714    0.0000 H   0  0  0  0  0  0  0  0  0  0  0  0
   10.0021   -2.1914    0.0000 H   0  0  0  0  0  0  0  0  0  0  0  0
   16.6292   -0.1727    0.0000 H   0  0  0  0  0  0  0  0  0  0  0  0
   17.4753   -0.4029    0.0000 H   0  0  0  0  0  0  0  0  0  0  0  0
   17.7055    0.4432    0.0000 H   0  0  0  0  0  0  0  0  0  0  0  0
   13.3099   -1.2518    0.0000 H   0  0  0  0  0  0  0  0  0  0  0  0
   13.9275   -1.8742    0.0000 H   0  0  0  0  0  0  0  0  0  0  0  0
   14.5499   -1.2566    0.0000 H   0  0  0  0  0  0  0  0  0  0  0  0
    7.4231   -1.3444    0.0000 H   0  0  0  0  0  0  0  0  0  0  0  0
    7.1962   -2.1914    0.0000 H   0  0  0  0  0  0  0  0  0  0  0  0
    8.0431   -2.4183    0.0000 H   0  0  0  0  0  0  0  0  0  0  0  0
   12.3732   -1.9183    0.0000 H   0  0  0  0  0  0  0  0  0  0  0  0
   12.6002   -1.0714    0.0000 H   0  0  0  0  0  0  0  0  0  0  0  0
   11.7532   -0.8444    0.0000 H   0  0  0  0  0  0  0  0  0  0  0  0
    8.5991   -2.7614    0.0000 H   0  0  0  0  0  0  0  0  0  0  0  0
    8.5991   -5.0014    0.0000 H   0  0  0  0  0  0  0  0  0  0  0  0
    7.1962   -5.1914    0.0000 H   0  0  0  0  0  0  0  0  0  0  0  0
    6.8671   -2.7614    0.0000 H   0  0  0  0  0  0  0  0  0  0  0  0
    6.3301   -4.0714    0.0000 H   0  0  0  0  0  0  0  0  0  0  0  0
   10.0021   -4.5714    0.0000 H   0  0  0  0  0  0  0  0  0  0  0  0
    6.3110   -2.3444    0.0000 H   0  0  0  0  0  0  0  0  0  0  0  0
    5.4641   -2.5714    0.0000 H   0  0  0  0  0  0  0  0  0  0  0  0
    5.6910   -3.4183    0.0000 H   0  0  0  0  0  0  0  0  0  0  0  0
    8.2700   -6.1914    0.0000 H   0  0  0  0  0  0  0  0  0  0  0  0
    5.6720   -4.0714    0.0000 H   0  0  0  0  0  0  0  0  0  0  0  0
    5.7456   -3.4890    0.0000 H   0  0  0  0  0  0  0  0  0  0  0  0
    5.3471   -2.7988    0.0000 H   0  0  0  0  0  0  0  0  0  0  0  0
    4.8059   -5.1914    0.0000 H   0  0  0  0  0  0  0  0  0  0  0  0
    4.8059   -2.5714    0.0000 H   0  0  0  0  0  0  0  0  0  0  0  0
    3.4030   -5.0014    0.0000 H   0  0  0  0  0  0  0  0  0  0  0  0
    3.4030   -2.7614    0.0000 H   0  0  0  0  0  0  0  0  0  0  0  0
    4.0569   -1.2988    0.0000 H   0  0  0  0  0  0  0  0  0  0  0  0
    3.6584   -1.9890    0.0000 H   0  0  0  0  0  0  0  0  0  0  0  0
    3.7320   -6.1914    0.0000 H   0  0  0  0  0  0  0  0  0  0  0  0
    2.0000   -4.5714    0.0000 H   0  0  0  0  0  0  0  0  0  0  0  0
    2.5369   -2.2614    0.0000 H   0  0  0  0  0  0  0  0  0  0  0  0
    5.1350   -0.7614    0.0000 H   0  0  0  0  0  0  0  0  0  0  0  0
 19  1  1  6  0  0  0
 20  1  1  6  0  0  0
 25  2  1  6  0  0  0
  2 40  1  0  0  0  0
 27  3  1  1  0  0  0
  3 41  1  0  0  0  0
 38  4  1  6  0  0  0
 42  4  1  1  0  0  0
  5 37  2  0  0  0  0
  6 40  2  0  0  0  0
  7 41  2  0  0  0  0
  8 42  1  0  0  0  0
  8 51  1  0  0  0  0
 50  9  1  1  0  0  0
  9 56  1  0  0  0  0
 52 10  1  6  0  0  0
 57 10  1  1  0  0  0
 11 57  1  0  0  0  0
 11 60  1  0  0  0  0
 58 12  1  6  0  0  0
 12130  1  0  0  0  0
 59 13  1  6  0  0  0
 13134  1  0  0  0  0
 61 14  1  6  0  0  0
 63 14  1  1  0  0  0
 65 15  1  6  0  0  0
 15144  1  0  0  0  0
 67 16  1  1  0  0  0
 16145  1  0  0  0  0
 68 17  1  6  0  0  0
 17146  1  0  0  0  0
 18 69  1  0  0  0  0
 18147  1  0  0  0  0
 19 20  1  0  0  0  0
 19 21  1  0  0  0  0
 19 24  1  0  0  0  0
 20 22  1  0  0  0  0
 20 26  1  0  0  0  0
 21 25  1  0  0  0  0
 21 28  1  0  0  0  0
 21 32  1  6  0  0  0
 22 23  1  0  0  0  0
 22 27  1  0  0  0  0
 22 70  1  1  0  0  0
 23 29  1  0  0  0  0
 23 33  1  0  0  0  0
 23 34  1  6  0  0  0
 24 30  1  0  0  0  0
 24 71  1  0  0  0  0
 24 72  1  0  0  0  0
 25 27  1  0  0  0  0
 25 73  1  0  0  0  0
 26 31  1  0  0  0  0
 26 74  1  0  0  0  0
 26 75  1  0  0  0  0
 27 76  1  0  0  0  0
 28 30  1  0  0  0  0
 28 37  1  6  0  0  0
 28 77  1  0  0  0  0
 29 31  1  0  0  0  0
 29 35  1  0  0  0  0
 29 78  1  1  0  0  0
 30 79  1  0  0  0  0
 30 80  1  0  0  0  0
 31 81  1  0  0  0  0
 31 82  1  0  0  0  0
 32 83  1  0  0  0  0
 32 84  1  0  0  0  0
 32 85  1  0  0  0  0
 33 36  1  0  0  0  0
 33 86  1  0  0  0  0
 33 87  1  0  0  0  0
 34 88  1  0  0  0  0
 34 89  1  0  0  0  0
 34 90  1  0  0  0  0
 35 38  1  0  0  0  0
 35 91  1  0  0  0  0
 35 92  1  0  0  0  0
 36 38  1  0  0  0  0
 36 93  1  0  0  0  0
 36 94  1  0  0  0  0
 37 39  1  0  0  0  0
 38 95  1  0  0  0  0
 39 96  1  0  0  0  0
 39 97  1  0  0  0  0
 39 98  1  0  0  0  0
 40 43  1  0  0  0  0
 41 44  1  0  0  0  0
 42 45  1  0  0  0  0
 42 99  1  0  0  0  0
 43 46  1  0  0  0  0
 43 48  2  0  0  0  0
 44 47  1  0  0  0  0
 44 49  2  0  0  0  0
 45 50  1  0  0  0  0
 45100  1  0  0  0  0
 45101  1  0  0  0  0
 46102  1  0  0  0  0
 46103  1  0  0  0  0
 46104  1  0  0  0  0
 47105  1  0  0  0  0
 47106  1  0  0  0  0
 47107  1  0  0  0  0
 48 53  1  0  0  0  0
 48108  1  0  0  0  0
 49 54  1  0  0  0  0
 49109  1  0  0  0  0
 50 52  1  0  0  0  0
 50110  1  0  0  0  0
 51 52  1  0  0  0  0
 51 55  1  1  0  0  0
 51111  1  0  0  0  0
 52112  1  0  0  0  0
 53113  1  0  0  0  0
 53114  1  0  0  0  0
 53115  1  0  0  0  0
 54116  1  0  0  0  0
 54117  1  0  0  0  0
 54118  1  0  0  0  0
 55119  1  0  0  0  0
 55120  1  0  0  0  0
 55121  1  0  0  0  0
 56122  1  0  0  0  0
 56123  1  0  0  0  0
 56124  1  0  0  0  0
 57 58  1  0  0  0  0
 57125  1  0  0  0  0
 58 59  1  0  0  0  0
 58126  1  0  0  0  0
 59 61  1  0  0  0  0
 59127  1  0  0  0  0
 60 61  1  0  0  0  0
 60 62  1  1  0  0  0
 60128  1  0  0  0  0
 61129  1  0  0  0  0
 62131  1  0  0  0  0
 62132  1  0  0  0  0
 62133  1  0  0  0  0
 63 64  1  0  0  0  0
 63 65  1  0  0  0  0
 63135  1  0  0  0  0
 64 66  1  0  0  0  0
 64136  1  0  0  0  0
 64137  1  0  0  0  0
 65 67  1  0  0  0  0
 65138  1  0  0  0  0
 66 68  1  0  0  0  0
 66 69  1  1  0  0  0
 66139  1  0  0  0  0
 67 68  1  0  0  0  0
 67140  1  0  0  0  0
 68141  1  0  0  0  0
 69142  1  0  0  0  0
 69143  1  0  0  0  0
M  END
> <PUBCHEM_COMPOUND_CID>
102421939

> <PUBCHEM_COMPOUND_CANONICALIZED>
1

> <PUBCHEM_CACTVS_COMPLEXITY>
1980

> <PUBCHEM_CACTVS_HBOND_ACCEPTOR>
18

> <PUBCHEM_CACTVS_HBOND_DONOR>
6

> <PUBCHEM_CACTVS_ROTATABLE_BOND>
15

> <PUBCHEM_CACTVS_SUBSKEYS>
AAADcfB8PgAAAAAAAAAAAAAAEgAAAYAAAAA0aMGCBIAAAGDQAAAAGgAACAAAD1SwgAMCCAAABgCIAqDSCAAAAAAAAAAACAEAAEARFBIAIQAiUAAFAAAHIYHK7PzPgAAAAAAAAADCAAYQADCAAYAADAAAAA==

> <PUBCHEM_IUPAC_OPENEYE_NAME>
[(1S,3R,6S,7S,8S,9S,10S,11S,14S,16S)-6-acetyl-14-[(2R,4R,5R,6R)-5-[(2S,3R,4S,5S,6R)-3,4-dihydroxy-6-methyl-5-[(1R,2R,3S,4R,5R)-2,3,4-trihydroxy-5-(hydroxymethyl)cyclohexoxy]tetrahydropyran-2-yl]oxy-4-methoxy-6-methyl-tetrahydropyran-2-yl]oxy-7,11-dimethyl-8-[(E)-2-methylbut-2-enoyl]oxy-2-oxapentacyclo[8.8.0.01,3.03,7.011,16]octadecan-9-yl] (E)-2-methylbut-2-enoate

> <PUBCHEM_IUPAC_CAS_NAME>
(E)-2-methyl-2-butenoic acid [(1S,3R,6S,7S,8S,9S,10S,11S,14S,16S)-6-acetyl-14-[[(2R,4R,5R,6R)-5-[[(2S,3R,4S,5S,6R)-3,4-dihydroxy-6-methyl-5-[(1R,2R,3S,4R,5R)-2,3,4-trihydroxy-5-(hydroxymethyl)cyclohexyl]oxy-2-oxanyl]oxy]-4-methoxy-6-methyl-2-oxanyl]oxy]-7,11-dimethyl-8-[(E)-2-methyl-1-oxobut-2-enoxy]-2-oxapentacyclo[8.8.0.01,3.03,7.011,16]octadecan-9-yl] ester

> <PUBCHEM_IUPAC_NAME_MARKUP>
[(1<I>S</I>,3<I>R</I>,6<I>S</I>,7<I>S</I>,8<I>S</I>,9<I>S</I>,10<I>S</I>,11<I>S</I>,14<I>S</I>,16<I>S</I>)-6-acetyl-14-[(2<I>R</I>,4<I>R</I>,5<I>R</I>,6<I>R</I>)-5-[(2<I>S</I>,3<I>R</I>,4<I>S</I>,5<I>S</I>,6<I>R</I>)-3,4-dihydroxy-6-methyl-5-[(1<I>R</I>,2<I>R</I>,3<I>S</I>,4<I>R</I>,5<I>R</I>)-2,3,4-trihydroxy-5-(hydroxymethyl)cyclohexyl]oxyoxan-2-yl]oxy-4-methoxy-6-methyloxan-2-yl]oxy-7,11-dimethyl-8-[(<I>E</I>)-2-methylbut-2-enoyl]oxy-2-oxapentacyclo[8.8.0.0<SUP>1,3</SUP>.0<SUP>3,7</SUP>.0<SUP>11,16</SUP>]octadecan-9-yl] (<I>E</I>)-2-methylbut-2-enoate

> <PUBCHEM_IUPAC_NAME>
[(1S,3R,6S,7S,8S,9S,10S,11S,14S,16S)-6-acetyl-14-[(2R,4R,5R,6R)-5-[(2S,3R,4S,5S,6R)-3,4-dihydroxy-6-methyl-5-[(1R,2R,3S,4R,5R)-2,3,4-trihydroxy-5-(hydroxymethyl)cyclohexyl]oxyoxan-2-yl]oxy-4-methoxy-6-methyloxan-2-yl]oxy-7,11-dimethyl-8-[(E)-2-methylbut-2-enoyl]oxy-2-oxapentacyclo[8.8.0.01,3.03,7.011,16]octadecan-9-yl] (E)-2-methylbut-2-enoate

> <PUBCHEM_IUPAC_SYSTEMATIC_NAME>
[(1S,3R,6S,7S,8S,9S,10S,11S,14S,16S)-6-ethanoyl-14-[(2R,4R,5R,6R)-5-[(2S,3R,4S,5S,6R)-5-[(1R,2R,3S,4R,5R)-5-(hydroxymethyl)-2,3,4-tris(oxidanyl)cyclohexyl]oxy-6-methyl-3,4-bis(oxidanyl)oxan-2-yl]oxy-4-methoxy-6-methyl-oxan-2-yl]oxy-7,11-dimethyl-8-[(E)-2-methylbut-2-enoyl]oxy-2-oxapentacyclo[8.8.0.01,3.03,7.011,16]octadecan-9-yl] (E)-2-methylbut-2-enoate

> <PUBCHEM_IUPAC_TRADITIONAL_NAME>
(E)-2-methylbut-2-enoic acid [(1S,3R,6S,7S,8S,9S,10S,11S,14S,16S)-6-acetyl-14-[(2R,4R,5R,6R)-5-[(2S,3R,4S,5S,6R)-3,4-dihydroxy-6-methyl-5-[(1R,2R,3S,4R,5R)-2,3,4-trihydroxy-5-methylol-cyclohexoxy]tetrahydropyran-2-yl]oxy-4-methoxy-6-methyl-tetrahydropyran-2-yl]oxy-7,11-dimethyl-8-[(E)-2-methylbut-2-enoyl]oxy-2-oxapentacyclo[8.8.0.01,3.03,7.011,16]octadecan-9-yl] ester

> <PUBCHEM_IUPAC_INCHI>
InChI=1S/C51H78O18/c1-11-23(3)45(59)66-42-43-48(8)16-14-30(20-29(48)13-17-50(43)51(69-50)18-15-31(25(5)53)49(51,9)44(42)68-46(60)24(4)12-2)64-34-21-33(61-10)40(26(6)62-34)67-47-39(58)38(57)41(27(7)63-47)65-32-19-28(22-52)35(54)37(56)36(32)55/h11-12,26-44,47,52,54-58H,13-22H2,1-10H3/b23-11+,24-12+/t26-,27-,28-,29+,30+,31-,32-,33-,34+,35-,36+,37+,38+,39-,40-,41-,42+,43-,44-,47+,48+,49+,50+,51-/m1/s1

> <PUBCHEM_IUPAC_INCHIKEY>
IEAITJVYJUBXNW-OLACQTGFSA-N

> <PUBCHEM_XLOGP3_AA>
2.7

> <PUBCHEM_EXACT_MASS>
978.518816

> <PUBCHEM_MOLECULAR_FORMULA>
C51H78O18

> <PUBCHEM_MOLECULAR_WEIGHT>
979.2

> <PUBCHEM_OPENEYE_CAN_SMILES>
CC=C(C)C(=O)OC1C2C3(CCC(CC3CCC24C5(O4)CCC(C5(C1OC(=O)C(=CC)C)C)C(=O)C)OC6CC(C(C(O6)C)OC7C(C(C(C(O7)C)OC8CC(C(C(C8O)O)O)CO)O)O)OC)C

> <PUBCHEM_OPENEYE_ISO_SMILES>
C/C=C(\C)/C(=O)O[C@H]1[C@@H]2[C@]3(CC[C@@H](C[C@@H]3CC[C@@]24[C@@]5(O4)CC[C@@H]([C@]5([C@@H]1OC(=O)/C(=C/C)/C)C)C(=O)C)O[C@H]6C[C@H]([C@@H]([C@H](O6)C)O[C@H]7[C@@H]([C@@H]([C@@H]([C@H](O7)C)O[C@@H]8C[C@@H]([C@H]([C@@H]([C@H]8O)O)O)CO)O)O)OC)C

> <PUBCHEM_CACTVS_TPSA>
259

> <PUBCHEM_MONOISOTOPIC_WEIGHT>
978.518816

> <PUBCHEM_TOTAL_CHARGE>
0

> <PUBCHEM_HEAVY_ATOM_COUNT>
69

> <PUBCHEM_ATOM_DEF_STEREO_COUNT>
24

> <PUBCHEM_ATOM_UDEF_STEREO_COUNT>
0

> <PUBCHEM_BOND_DEF_STEREO_COUNT>
2

> <PUBCHEM_BOND_UDEF_STEREO_COUNT>
0

> <PUBCHEM_ISOTOPIC_ATOM_COUNT>
0

> <PUBCHEM_COMPONENT_COUNT>
1

> <PUBCHEM_CACTVS_TAUTO_COUNT>
-1

> <PUBCHEM_COORDINATE_TYPE>
1
5
255

> <PUBCHEM_BONDANNOTATIONS>
19  1  6
20  1  6
52  10  6
57  10  5
58  12  6
59  13  6
61  14  6
63  14  5
65  15  6
67  16  5
68  17  6
25  2  6
21  32  6
22  70  5
23  34  6
28  37  6
29  78  5
27  3  5
38  4  6
42  4  5
51  55  5
60  62  5
66  69  5
50  9  5

$$$$
