129908907
  -OEChem-09092001542D

172179  0     1  0  0  0  0  0999 V2000
   14.4788    5.2851    0.0000 O   0  0  0  0  0  0  0  0  0  0  0  0
   15.0453    5.6093    0.0000 O   0  0  0  0  0  0  0  0  0  0  0  0
   15.6736    1.8408    0.0000 O   0  0  0  0  0  0  0  0  0  0  0  0
   17.4094    2.8341    0.0000 O   0  0  0  0  0  0  0  0  0  0  0  0
   11.1972    1.2136    0.0000 O   0  0  0  0  0  0  0  0  0  0  0  0
   18.9822    4.6380    0.0000 O   0  0  0  0  0  0  0  0  0  0  0  0
   17.4056    1.8341    0.0000 O   0  0  0  0  0  0  0  0  0  0  0  0
   18.9128    3.6943    0.0000 O   0  0  0  0  0  0  0  0  0  0  0  0
   10.3312   -0.2864    0.0000 O   0  0  0  0  0  0  0  0  0  0  0  0
   12.9292   -1.7864    0.0000 O   0  0  0  0  0  0  0  0  0  0  0  0
   11.1972   -2.7864    0.0000 O   0  0  0  0  0  0  0  0  0  0  0  0
    9.4651   -2.7864    0.0000 O   0  0  0  0  0  0  0  0  0  0  0  0
   11.1972   -4.7864    0.0000 O   0  0  0  0  0  0  0  0  0  0  0  0
    9.4651   -5.7864    0.0000 O   0  0  0  0  0  0  0  0  0  0  0  0
    7.7331   -4.7864    0.0000 O   0  0  0  0  0  0  0  0  0  0  0  0
    6.8671   -3.2864    0.0000 O   0  0  0  0  0  0  0  0  0  0  0  0
    6.0010   -5.7864    0.0000 O   0  0  0  0  0  0  0  0  0  0  0  0
    4.2690   -2.7864    0.0000 O   0  0  0  0  0  0  0  0  0  0  0  0
    4.2690   -4.7864    0.0000 O   0  0  0  0  0  0  0  0  0  0  0  0
    6.8671   -1.2864    0.0000 O   0  0  0  0  0  0  0  0  0  0  0  0
    5.1350   -1.2864    0.0000 O   0  0  0  0  0  0  0  0  0  0  0  0
    2.5369   -1.7864    0.0000 O   0  0  0  0  0  0  0  0  0  0  0  0
    2.5369    0.2136    0.0000 O   0  0  0  0  0  0  0  0  0  0  0  0
    4.2690    1.2136    0.0000 O   0  0  0  0  0  0  0  0  0  0  0  0
    6.0010    1.2136    0.0000 O   0  0  0  0  0  0  0  0  0  0  0  0
   14.8172    4.3441    0.0000 C   0  0  2  0  0  0  0  0  0  0  0  0
   15.6851    4.8408    0.0000 C   0  0  1  0  0  0  0  0  0  0  0  0
   14.8133    3.3441    0.0000 C   0  0  1  0  0  0  0  0  0  0  0  0
   16.5492    4.3374    0.0000 C   0  0  2  0  0  0  0  0  0  0  0  0
   13.9173    2.8129    0.0000 C   0  0  2  0  0  0  0  0  0  0  0  0
   15.6774    2.8408    0.0000 C   0  0  1  0  0  0  0  0  0  0  0  0
   16.5454    3.3374    0.0000 C   0  0  1  0  0  0  0  0  0  0  0  0
   13.0132    3.3302    0.0000 C   0  0  1  0  0  0  0  0  0  0  0  0
   17.2888    5.0017    0.0000 C   0  0  2  0  0  0  0  0  0  0  0  0
   13.9253    4.8822    0.0000 C   0  0  0  0  0  0  0  0  0  0  0  0
   15.8981    5.8118    0.0000 C   0  0  0  0  0  0  0  0  0  0  0  0
   13.0173    4.3718    0.0000 C   0  0  0  0  0  0  0  0  0  0  0  0
   16.8872    5.9110    0.0000 C   0  0  0  0  0  0  0  0  0  0  0  0
   13.9382    1.7281    0.0000 C   0  0  0  0  0  0  0  0  0  0  0  0
   17.4133    3.8341    0.0000 C   0  0  0  0  0  0  0  0  0  0  0  0
   12.0674    2.7986    0.0000 C   0  0  0  0  0  0  0  0  0  0  0  0
   14.7853    2.3162    0.0000 C   0  0  0  0  0  0  0  0  0  0  0  0
   13.0049    1.1748    0.0000 C   0  0  0  0  0  0  0  0  0  0  0  0
   12.0632    1.7136    0.0000 C   0  0  2  0  0  0  0  0  0  0  0  0
   18.2405    5.3086    0.0000 C   0  0  0  0  0  0  0  0  0  0  0  0
   18.4505    6.2864    0.0000 C   0  0  0  0  0  0  0  0  0  0  0  0
   16.5376    1.3374    0.0000 C   0  0  0  0  0  0  0  0  0  0  0  0
   18.4094    2.8302    0.0000 C   0  0  0  0  0  0  0  0  0  0  0  0
   11.1972    0.2136    0.0000 C   0  0  2  0  0  0  0  0  0  0  0  0
   16.5338    0.3374    0.0000 C   0  0  0  0  0  0  0  0  0  0  0  0
   18.9061    1.9623    0.0000 C   0  0  0  0  0  0  0  0  0  0  0  0
   12.0632   -0.2864    0.0000 C   0  0  0  0  0  0  0  0  0  0  0  0
   12.0632   -1.2864    0.0000 C   0  0  2  0  0  0  0  0  0  0  0  0
   10.3312   -1.2864    0.0000 C   0  0  3  0  0  0  0  0  0  0  0  0
   11.1972   -1.7864    0.0000 C   0  0  1  0  0  0  0  0  0  0  0  0
   17.3979   -0.1659    0.0000 C   0  0  0  0  0  0  0  0  0  0  0  0
   19.9061    1.9584    0.0000 C   0  0  0  0  0  0  0  0  0  0  0  0
   15.6658   -0.1592    0.0000 C   0  0  0  0  0  0  0  0  0  0  0  0
   18.4028    1.0982    0.0000 C   0  0  0  0  0  0  0  0  0  0  0  0
    9.4651   -1.7864    0.0000 C   0  0  0  0  0  0  0  0  0  0  0  0
   15.6620   -1.1592    0.0000 C   0  0  0  0  0  0  0  0  0  0  0  0
   18.8994    0.2303    0.0000 C   0  0  0  0  0  0  0  0  0  0  0  0
   10.3312   -3.2864    0.0000 C   0  0  2  0  0  0  0  0  0  0  0  0
   13.7953   -1.2864    0.0000 C   0  0  0  0  0  0  0  0  0  0  0  0
   10.3312   -4.2864    0.0000 C   0  0  3  0  0  0  0  0  0  0  0  0
    9.4651   -4.7864    0.0000 C   0  0  2  0  0  0  0  0  0  0  0  0
    8.5991   -3.2864    0.0000 C   0  0  3  0  0  0  0  0  0  0  0  0
    8.5991   -4.2864    0.0000 C   0  0  1  0  0  0  0  0  0  0  0  0
    7.7331   -2.7864    0.0000 C   0  0  0  0  0  0  0  0  0  0  0  0
    6.8671   -4.2864    0.0000 C   0  0  2  0  0  0  0  0  0  0  0  0
   10.3312   -6.2864    0.0000 C   0  0  0  0  0  0  0  0  0  0  0  0
    6.0010   -4.7864    0.0000 C   0  0  3  0  0  0  0  0  0  0  0  0
    5.1350   -4.2864    0.0000 C   0  0  2  0  0  0  0  0  0  0  0  0
    6.0010   -2.7864    0.0000 C   0  0  3  0  0  0  0  0  0  0  0  0
    5.1350   -3.2864    0.0000 C   0  0  1  0  0  0  0  0  0  0  0  0
    6.0010   -1.7864    0.0000 C   0  0  0  0  0  0  0  0  0  0  0  0
    4.2690   -1.7864    0.0000 C   0  0  2  0  0  0  0  0  0  0  0  0
    3.4030   -1.2864    0.0000 C   0  0  3  0  0  0  0  0  0  0  0  0
    3.4030   -0.2864    0.0000 C   0  0  2  0  0  0  0  0  0  0  0  0
    5.1350   -0.2864    0.0000 C   0  0  3  0  0  0  0  0  0  0  0  0
    4.2690    0.2136    0.0000 C   0  0  1  0  0  0  0  0  0  0  0  0
    6.0010    0.2136    0.0000 C   0  0  0  0  0  0  0  0  0  0  0  0
   15.5511    3.7663    0.0000 H   0  0  0  0  0  0  0  0  0  0  0  0
   15.1393    2.5328    0.0000 H   0  0  0  0  0  0  0  0  0  0  0  0
   16.5430    2.7174    0.0000 H   0  0  0  0  0  0  0  0  0  0  0  0
   12.2804    3.7609    0.0000 H   0  0  0  0  0  0  0  0  0  0  0  0
   17.5979    4.4642    0.0000 H   0  0  0  0  0  0  0  0  0  0  0  0
   14.3317    5.3504    0.0000 H   0  0  0  0  0  0  0  0  0  0  0  0
   13.5335    5.3627    0.0000 H   0  0  0  0  0  0  0  0  0  0  0  0
   15.9014    6.4318    0.0000 H   0  0  0  0  0  0  0  0  0  0  0  0
   15.2819    5.8802    0.0000 H   0  0  0  0  0  0  0  0  0  0  0  0
   12.8105    4.9563    0.0000 H   0  0  0  0  0  0  0  0  0  0  0  0
   12.4060    4.2681    0.0000 H   0  0  0  0  0  0  0  0  0  0  0  0
   17.4775    6.1005    0.0000 H   0  0  0  0  0  0  0  0  0  0  0  0
   16.7608    6.5180    0.0000 H   0  0  0  0  0  0  0  0  0  0  0  0
   14.1585    1.1485    0.0000 H   0  0  0  0  0  0  0  0  0  0  0  0
   14.5469    1.8459    0.0000 H   0  0  0  0  0  0  0  0  0  0  0  0
   17.1012    3.2984    0.0000 H   0  0  0  0  0  0  0  0  0  0  0  0
   17.9490    3.5220    0.0000 H   0  0  0  0  0  0  0  0  0  0  0  0
   17.7254    4.3698    0.0000 H   0  0  0  0  0  0  0  0  0  0  0  0
   11.8606    3.3831    0.0000 H   0  0  0  0  0  0  0  0  0  0  0  0
   11.4561    2.6949    0.0000 H   0  0  0  0  0  0  0  0  0  0  0  0
   14.4773    1.7781    0.0000 H   0  0  0  0  0  0  0  0  0  0  0  0
   15.3234    2.0083    0.0000 H   0  0  0  0  0  0  0  0  0  0  0  0
   15.0932    2.8544    0.0000 H   0  0  0  0  0  0  0  0  0  0  0  0
   12.6095    0.6973    0.0000 H   0  0  0  0  0  0  0  0  0  0  0  0
   13.4077    0.7034    0.0000 H   0  0  0  0  0  0  0  0  0  0  0  0
   11.5269    2.0247    0.0000 H   0  0  0  0  0  0  0  0  0  0  0  0
   14.0054    5.6854    0.0000 H   0  0  0  0  0  0  0  0  0  0  0  0
   15.2596    6.1911    0.0000 H   0  0  0  0  0  0  0  0  0  0  0  0
   19.0567    6.1562    0.0000 H   0  0  0  0  0  0  0  0  0  0  0  0
   18.5807    6.8925    0.0000 H   0  0  0  0  0  0  0  0  0  0  0  0
   17.8443    6.4166    0.0000 H   0  0  0  0  0  0  0  0  0  0  0  0
   11.7341    0.5236    0.0000 H   0  0  0  0  0  0  0  0  0  0  0  0
   12.6738   -0.3940    0.0000 H   0  0  0  0  0  0  0  0  0  0  0  0
   12.2753    0.2963    0.0000 H   0  0  0  0  0  0  0  0  0  0  0  0
   12.6002   -0.9764    0.0000 H   0  0  0  0  0  0  0  0  0  0  0  0
    9.7942   -0.9764    0.0000 H   0  0  0  0  0  0  0  0  0  0  0  0
   11.7341   -2.0964    0.0000 H   0  0  0  0  0  0  0  0  0  0  0  0
   17.0858   -0.7016    0.0000 H   0  0  0  0  0  0  0  0  0  0  0  0
   17.9336   -0.4780    0.0000 H   0  0  0  0  0  0  0  0  0  0  0  0
   17.7099    0.3699    0.0000 H   0  0  0  0  0  0  0  0  0  0  0  0
   19.9037    1.3384    0.0000 H   0  0  0  0  0  0  0  0  0  0  0  0
   20.5261    1.9560    0.0000 H   0  0  0  0  0  0  0  0  0  0  0  0
   19.9085    2.5784    0.0000 H   0  0  0  0  0  0  0  0  0  0  0  0
   15.1301    0.1529    0.0000 H   0  0  0  0  0  0  0  0  0  0  0  0
   17.7828    1.1006    0.0000 H   0  0  0  0  0  0  0  0  0  0  0  0
    9.1551   -1.2494    0.0000 H   0  0  0  0  0  0  0  0  0  0  0  0
    8.9282   -2.0964    0.0000 H   0  0  0  0  0  0  0  0  0  0  0  0
    9.7751   -2.3233    0.0000 H   0  0  0  0  0  0  0  0  0  0  0  0
   15.0420   -1.1568    0.0000 H   0  0  0  0  0  0  0  0  0  0  0  0
   15.6596   -1.7792    0.0000 H   0  0  0  0  0  0  0  0  0  0  0  0
   16.2820   -1.1616    0.0000 H   0  0  0  0  0  0  0  0  0  0  0  0
   18.3613   -0.0777    0.0000 H   0  0  0  0  0  0  0  0  0  0  0  0
   19.2073   -0.3079    0.0000 H   0  0  0  0  0  0  0  0  0  0  0  0
   19.4375    0.5382    0.0000 H   0  0  0  0  0  0  0  0  0  0  0  0
   10.3312   -2.6664    0.0000 H   0  0  0  0  0  0  0  0  0  0  0  0
   14.1053   -1.8233    0.0000 H   0  0  0  0  0  0  0  0  0  0  0  0
   14.3322   -0.9764    0.0000 H   0  0  0  0  0  0  0  0  0  0  0  0
   13.4853   -0.7494    0.0000 H   0  0  0  0  0  0  0  0  0  0  0  0
   10.3312   -4.9064    0.0000 H   0  0  0  0  0  0  0  0  0  0  0  0
    8.9282   -5.0964    0.0000 H   0  0  0  0  0  0  0  0  0  0  0  0
    8.5991   -2.6664    0.0000 H   0  0  0  0  0  0  0  0  0  0  0  0
    8.5991   -4.9064    0.0000 H   0  0  0  0  0  0  0  0  0  0  0  0
   11.7341   -4.4764    0.0000 H   0  0  0  0  0  0  0  0  0  0  0  0
    8.0431   -2.2494    0.0000 H   0  0  0  0  0  0  0  0  0  0  0  0
    7.1962   -2.4764    0.0000 H   0  0  0  0  0  0  0  0  0  0  0  0
    7.4231   -3.3233    0.0000 H   0  0  0  0  0  0  0  0  0  0  0  0
    6.8671   -4.9064    0.0000 H   0  0  0  0  0  0  0  0  0  0  0  0
   10.0212   -6.8233    0.0000 H   0  0  0  0  0  0  0  0  0  0  0  0
   10.8681   -6.5964    0.0000 H   0  0  0  0  0  0  0  0  0  0  0  0
   10.6412   -5.7494    0.0000 H   0  0  0  0  0  0  0  0  0  0  0  0
    5.4641   -5.0964    0.0000 H   0  0  0  0  0  0  0  0  0  0  0  0
    4.5981   -3.9764    0.0000 H   0  0  0  0  0  0  0  0  0  0  0  0
    6.5380   -2.4764    0.0000 H   0  0  0  0  0  0  0  0  0  0  0  0
    5.1350   -2.6664    0.0000 H   0  0  0  0  0  0  0  0  0  0  0  0
    5.4641   -6.0964    0.0000 H   0  0  0  0  0  0  0  0  0  0  0  0
    5.7890   -1.2038    0.0000 H   0  0  0  0  0  0  0  0  0  0  0  0
    5.3905   -1.8940    0.0000 H   0  0  0  0  0  0  0  0  0  0  0  0
    3.7320   -4.4764    0.0000 H   0  0  0  0  0  0  0  0  0  0  0  0
    3.7320   -2.0964    0.0000 H   0  0  0  0  0  0  0  0  0  0  0  0
    2.8660   -0.9764    0.0000 H   0  0  0  0  0  0  0  0  0  0  0  0
    3.4030    0.3336    0.0000 H   0  0  0  0  0  0  0  0  0  0  0  0
    7.4040   -1.5964    0.0000 H   0  0  0  0  0  0  0  0  0  0  0  0
    5.6720   -0.5964    0.0000 H   0  0  0  0  0  0  0  0  0  0  0  0
    4.8059    0.5236    0.0000 H   0  0  0  0  0  0  0  0  0  0  0  0
    6.2131   -0.3690    0.0000 H   0  0  0  0  0  0  0  0  0  0  0  0
    6.6116    0.3213    0.0000 H   0  0  0  0  0  0  0  0  0  0  0  0
    2.0000   -1.4764    0.0000 H   0  0  0  0  0  0  0  0  0  0  0  0
    2.5369    0.8336    0.0000 H   0  0  0  0  0  0  0  0  0  0  0  0
    3.7320    1.5236    0.0000 H   0  0  0  0  0  0  0  0  0  0  0  0
    6.5380    1.5236    0.0000 H   0  0  0  0  0  0  0  0  0  0  0  0
 26  1  1  6  0  0  0
  1109  1  0  0  0  0
 27  2  1  6  0  0  0
  2110  1  0  0  0  0
 31  3  1  1  0  0  0
  3 47  1  0  0  0  0
 32  4  1  6  0  0  0
  4 48  1  0  0  0  0
 44  5  1  6  0  0  0
 49  5  1  1  0  0  0
  6 45  2  0  0  0  0
  7 47  2  0  0  0  0
  8 48  2  0  0  0  0
  9 49  1  0  0  0  0
  9 54  1  0  0  0  0
 53 10  1  1  0  0  0
 10 64  1  0  0  0  0
 55 11  1  6  0  0  0
 63 11  1  1  0  0  0
 12 63  1  0  0  0  0
 12 67  1  0  0  0  0
 13 65  1  0  0  0  0
 13145  1  0  0  0  0
 66 14  1  1  0  0  0
 14 71  1  0  0  0  0
 68 15  1  6  0  0  0
 70 15  1  1  0  0  0
 16 70  1  0  0  0  0
 16 74  1  0  0  0  0
 17 72  1  0  0  0  0
 17157  1  0  0  0  0
 75 18  1  6  0  0  0
 77 18  1  1  0  0  0
 73 19  1  1  0  0  0
 19160  1  0  0  0  0
 20 76  1  0  0  0  0
 20164  1  0  0  0  0
 21 77  1  0  0  0  0
 21 80  1  0  0  0  0
 22 78  1  0  0  0  0
 22169  1  0  0  0  0
 79 23  1  1  0  0  0
 23170  1  0  0  0  0
 81 24  1  6  0  0  0
 24171  1  0  0  0  0
 25 82  1  0  0  0  0
 25172  1  0  0  0  0
 26 27  1  0  0  0  0
 26 28  1  0  0  0  0
 26 35  1  0  0  0  0
 27 29  1  0  0  0  0
 27 36  1  0  0  0  0
 28 30  1  0  0  0  0
 28 31  1  0  0  0  0
 28 83  1  1  0  0  0
 29 32  1  0  0  0  0
 29 34  1  0  0  0  0
 29 40  1  6  0  0  0
 30 33  1  0  0  0  0
 30 39  1  0  0  0  0
 30 42  1  6  0  0  0
 31 32  1  0  0  0  0
 31 84  1  0  0  0  0
 32 85  1  0  0  0  0
 33 37  1  0  0  0  0
 33 41  1  0  0  0  0
 33 86  1  1  0  0  0
 34 38  1  0  0  0  0
 34 45  1  6  0  0  0
 34 87  1  0  0  0  0
 35 37  1  0  0  0  0
 35 88  1  0  0  0  0
 35 89  1  0  0  0  0
 36 38  1  0  0  0  0
 36 90  1  0  0  0  0
 36 91  1  0  0  0  0
 37 92  1  0  0  0  0
 37 93  1  0  0  0  0
 38 94  1  0  0  0  0
 38 95  1  0  0  0  0
 39 43  1  0  0  0  0
 39 96  1  0  0  0  0
 39 97  1  0  0  0  0
 40 98  1  0  0  0  0
 40 99  1  0  0  0  0
 40100  1  0  0  0  0
 41 44  1  0  0  0  0
 41101  1  0  0  0  0
 41102  1  0  0  0  0
 42103  1  0  0  0  0
 42104  1  0  0  0  0
 42105  1  0  0  0  0
 43 44  1  0  0  0  0
 43106  1  0  0  0  0
 43107  1  0  0  0  0
 44108  1  0  0  0  0
 45 46  1  0  0  0  0
 46111  1  0  0  0  0
 46112  1  0  0  0  0
 46113  1  0  0  0  0
 47 50  1  0  0  0  0
 48 51  1  0  0  0  0
 49 52  1  0  0  0  0
 49114  1  0  0  0  0
 50 56  1  0  0  0  0
 50 58  2  0  0  0  0
 51 57  1  0  0  0  0
 51 59  2  0  0  0  0
 52 53  1  0  0  0  0
 52115  1  0  0  0  0
 52116  1  0  0  0  0
 53 55  1  0  0  0  0
 53117  1  0  0  0  0
 54 55  1  0  0  0  0
 54 60  1  0  0  0  0
 54118  1  0  0  0  0
 55119  1  0  0  0  0
 56120  1  0  0  0  0
 56121  1  0  0  0  0
 56122  1  0  0  0  0
 57123  1  0  0  0  0
 57124  1  0  0  0  0
 57125  1  0  0  0  0
 58 61  1  0  0  0  0
 58126  1  0  0  0  0
 59 62  1  0  0  0  0
 59127  1  0  0  0  0
 60128  1  0  0  0  0
 60129  1  0  0  0  0
 60130  1  0  0  0  0
 61131  1  0  0  0  0
 61132  1  0  0  0  0
 61133  1  0  0  0  0
 62134  1  0  0  0  0
 62135  1  0  0  0  0
 62136  1  0  0  0  0
 63 65  1  0  0  0  0
 63137  1  0  0  0  0
 64138  1  0  0  0  0
 64139  1  0  0  0  0
 64140  1  0  0  0  0
 65 66  1  0  0  0  0
 65141  1  0  0  0  0
 66 68  1  0  0  0  0
 66142  1  0  0  0  0
 67 68  1  0  0  0  0
 67 69  1  0  0  0  0
 67143  1  0  0  0  0
 68144  1  0  0  0  0
 69146  1  0  0  0  0
 69147  1  0  0  0  0
 69148  1  0  0  0  0
 70 72  1  0  0  0  0
 70149  1  0  0  0  0
 71150  1  0  0  0  0
 71151  1  0  0  0  0
 71152  1  0  0  0  0
 72 73  1  0  0  0  0
 72153  1  0  0  0  0
 73 75  1  0  0  0  0
 73154  1  0  0  0  0
 74 75  1  0  0  0  0
 74 76  1  0  0  0  0
 74155  1  0  0  0  0
 75156  1  0  0  0  0
 76158  1  0  0  0  0
 76159  1  0  0  0  0
 77 78  1  0  0  0  0
 77161  1  0  0  0  0
 78 79  1  0  0  0  0
 78162  1  0  0  0  0
 79 81  1  0  0  0  0
 79163  1  0  0  0  0
 80 81  1  0  0  0  0
 80 82  1  0  0  0  0
 80165  1  0  0  0  0
 81166  1  0  0  0  0
 82167  1  0  0  0  0
 82168  1  0  0  0  0
M  END
> <PUBCHEM_COMPOUND_CID>
129908907

> <PUBCHEM_COMPOUND_CANONICALIZED>
1

> <PUBCHEM_CACTVS_COMPLEXITY>
2300

> <PUBCHEM_CACTVS_HBOND_ACCEPTOR>
25

> <PUBCHEM_CACTVS_HBOND_DONOR>
10

> <PUBCHEM_CACTVS_ROTATABLE_BOND>
19

> <PUBCHEM_CACTVS_SUBSKEYS>
AAADcfB8PgAAAAAAAAAAAAAAAAAAAYAAAAA0aNEiAAAAAGDAAAAAGgAACAAAD1SwgAMCCAAABgCIAqDSCAAAAAAAAAAACAEAAEARFBIAIQAiUAAFAAAHIYHK7PzPgAAAAAAAAADCAAYQADCAAYAADAAAAA==

> <PUBCHEM_IUPAC_OPENEYE_NAME>
[(3S,5S,8S,9S,10S,11S,12S,13S,14R,17S)-17-acetyl-3-[(2R,4R,5R)-5-[(2S,4R,5R)-5-[(2S,4R,5S)-3,4-dihydroxy-6-(hydroxymethyl)-5-[(2S,4S,5S)-3,4,5-trihydroxy-6-(hydroxymethyl)tetrahydropyran-2-yl]oxy-tetrahydropyran-2-yl]oxy-3-hydroxy-4-methoxy-6-methyl-tetrahydropyran-2-yl]oxy-4-methoxy-6-methyl-tetrahydropyran-2-yl]oxy-8,14-dihydroxy-10,13-dimethyl-12-[(E)-2-methylbut-2-enoyl]oxy-2,3,4,5,6,7,9,11,12,15,16,17-dodecahydro-1H-cyclopenta[a]phenanthren-11-yl] (E)-2-methylbut-2-enoate

> <PUBCHEM_IUPAC_CAS_NAME>
(E)-2-methyl-2-butenoic acid [(3S,5S,8S,9S,10S,11S,12S,13S,14R,17S)-17-acetyl-3-[[(2R,4R,5R)-5-[[(2S,4R,5R)-5-[[(2S,4R,5S)-3,4-dihydroxy-6-(hydroxymethyl)-5-[[(2S,4S,5S)-3,4,5-trihydroxy-6-(hydroxymethyl)-2-oxanyl]oxy]-2-oxanyl]oxy]-3-hydroxy-4-methoxy-6-methyl-2-oxanyl]oxy]-4-methoxy-6-methyl-2-oxanyl]oxy]-8,14-dihydroxy-10,13-dimethyl-12-[(E)-2-methyl-1-oxobut-2-enoxy]-2,3,4,5,6,7,9,11,12,15,16,17-dodecahydro-1H-cyclopenta[a]phenanthren-11-yl] ester

> <PUBCHEM_IUPAC_NAME_MARKUP>
[(3<I>S</I>,5<I>S</I>,8<I>S</I>,9<I>S</I>,10<I>S</I>,11<I>S</I>,12<I>S</I>,13<I>S</I>,14<I>R</I>,17<I>S</I>)-17-acetyl-3-[(2<I>R</I>,4<I>R</I>,5<I>R</I>)-5-[(2<I>S</I>,4<I>R</I>,5<I>R</I>)-5-[(2<I>S</I>,4<I>R</I>,5<I>S</I>)-3,4-dihydroxy-6-(hydroxymethyl)-5-[(2<I>S</I>,4<I>S</I>,5<I>S</I>)-3,4,5-trihydroxy-6-(hydroxymethyl)oxan-2-yl]oxyoxan-2-yl]oxy-3-hydroxy-4-methoxy-6-methyloxan-2-yl]oxy-4-methoxy-6-methyloxan-2-yl]oxy-8,14-dihydroxy-10,13-dimethyl-12-[(<I>E</I>)-2-methylbut-2-enoyl]oxy-2,3,4,5,6,7,9,11,12,15,16,17-dodecahydro-1<I>H</I>-cyclopenta[a]phenanthren-11-yl] (<I>E</I>)-2-methylbut-2-enoate

> <PUBCHEM_IUPAC_NAME>
[(3S,5S,8S,9S,10S,11S,12S,13S,14R,17S)-17-acetyl-3-[(2R,4R,5R)-5-[(2S,4R,5R)-5-[(2S,4R,5S)-3,4-dihydroxy-6-(hydroxymethyl)-5-[(2S,4S,5S)-3,4,5-trihydroxy-6-(hydroxymethyl)oxan-2-yl]oxyoxan-2-yl]oxy-3-hydroxy-4-methoxy-6-methyloxan-2-yl]oxy-4-methoxy-6-methyloxan-2-yl]oxy-8,14-dihydroxy-10,13-dimethyl-12-[(E)-2-methylbut-2-enoyl]oxy-2,3,4,5,6,7,9,11,12,15,16,17-dodecahydro-1H-cyclopenta[a]phenanthren-11-yl] (E)-2-methylbut-2-enoate

> <PUBCHEM_IUPAC_SYSTEMATIC_NAME>
[(3S,5S,8S,9S,10S,11S,12S,13S,14R,17S)-17-ethanoyl-3-[(2R,4R,5R)-5-[(2S,4R,5R)-5-[(2S,4R,5S)-6-(hydroxymethyl)-5-[(2S,4S,5S)-6-(hydroxymethyl)-3,4,5-tris(oxidanyl)oxan-2-yl]oxy-3,4-bis(oxidanyl)oxan-2-yl]oxy-4-methoxy-6-methyl-3-oxidanyl-oxan-2-yl]oxy-4-methoxy-6-methyl-oxan-2-yl]oxy-10,13-dimethyl-12-[(E)-2-methylbut-2-enoyl]oxy-8,14-bis(oxidanyl)-2,3,4,5,6,7,9,11,12,15,16,17-dodecahydro-1H-cyclopenta[a]phenanthren-11-yl] (E)-2-methylbut-2-enoate

> <PUBCHEM_IUPAC_TRADITIONAL_NAME>
(E)-2-methylbut-2-enoic acid [(3S,5S,8S,9S,10S,11S,12S,13S,14R,17S)-17-acetyl-3-[(2R,4R,5R)-5-[(2S,4R,5R)-5-[(2S,4R,5S)-3,4-dihydroxy-6-methylol-5-[(2S,4S,5S)-3,4,5-trihydroxy-6-methylol-tetrahydropyran-2-yl]oxy-tetrahydropyran-2-yl]oxy-3-hydroxy-4-methoxy-6-methyl-tetrahydropyran-2-yl]oxy-4-methoxy-6-methyl-tetrahydropyran-2-yl]oxy-8,14-dihydroxy-10,13-dimethyl-12-[(E)-2-methylbut-2-enoyl]oxy-2,3,4,5,6,7,9,11,12,15,16,17-dodecahydro-1H-cyclopenta[a]phenanthren-11-yl] ester

> <PUBCHEM_IUPAC_INCHI>
InChI=1S/C57H90O25/c1-12-24(3)49(67)78-46-47-54(8)17-15-30(20-29(54)14-18-56(47,69)57(70)19-16-31(26(5)60)55(57,9)48(46)82-50(68)25(4)13-2)75-35-21-32(71-10)42(27(6)73-35)79-53-41(66)45(72-11)43(28(7)74-53)80-52-40(65)38(63)44(34(23-59)77-52)81-51-39(64)37(62)36(61)33(22-58)76-51/h12-13,27-48,51-53,58-59,61-66,69-70H,14-23H2,1-11H3/b24-12+,25-13+/t27?,28?,29-,30-,31+,32+,33?,34?,35-,36+,37-,38+,39?,40?,41?,42+,43+,44+,45+,46-,47+,48+,51-,52-,53-,54-,55-,56-,57+/m0/s1

> <PUBCHEM_IUPAC_INCHIKEY>
OTVUUVZPQBCHBI-VQWCLMIGSA-N

> <PUBCHEM_XLOGP3_AA>
-0.5

> <PUBCHEM_EXACT_MASS>
1174.577118

> <PUBCHEM_MOLECULAR_FORMULA>
C57H90O25

> <PUBCHEM_MOLECULAR_WEIGHT>
1175.3

> <PUBCHEM_OPENEYE_CAN_SMILES>
CC=C(C)C(=O)OC1C2C3(CCC(CC3CCC2(C4(CCC(C4(C1OC(=O)C(=CC)C)C)C(=O)C)O)O)OC5CC(C(C(O5)C)OC6C(C(C(C(O6)C)OC7C(C(C(C(O7)CO)OC8C(C(C(C(O8)CO)O)O)O)O)O)OC)O)OC)C

> <PUBCHEM_OPENEYE_ISO_SMILES>
C/C=C(\C)/C(=O)O[C@H]1[C@@H]2[C@]3(CC[C@@H](C[C@@H]3CC[C@]2([C@]4(CC[C@@H]([C@]4([C@@H]1OC(=O)/C(=C/C)/C)C)C(=O)C)O)O)O[C@H]5C[C@H]([C@@H](C(O5)C)O[C@H]6C([C@H]([C@@H](C(O6)C)O[C@H]7C([C@H]([C@@H](C(O7)CO)O[C@H]8C([C@H]([C@@H](C(O8)CO)O)O)O)O)O)OC)O)OC)C

> <PUBCHEM_CACTVS_TPSA>
364

> <PUBCHEM_MONOISOTOPIC_WEIGHT>
1174.577118

> <PUBCHEM_TOTAL_CHARGE>
0

> <PUBCHEM_HEAVY_ATOM_COUNT>
82

> <PUBCHEM_ATOM_DEF_STEREO_COUNT>
22

> <PUBCHEM_ATOM_UDEF_STEREO_COUNT>
7

> <PUBCHEM_BOND_DEF_STEREO_COUNT>
2

> <PUBCHEM_BOND_UDEF_STEREO_COUNT>
0

> <PUBCHEM_ISOTOPIC_ATOM_COUNT>
0

> <PUBCHEM_COMPONENT_COUNT>
1

> <PUBCHEM_CACTVS_TAUTO_COUNT>
-1

> <PUBCHEM_COORDINATE_TYPE>
1
5
255

> <PUBCHEM_BONDANNOTATIONS>
26  1  6
53  10  5
55  11  6
63  11  5
65  13  3
66  14  5
68  15  6
70  15  5
72  17  3
75  18  6
77  18  5
73  19  5
27  2  6
78  22  3
79  23  5
81  24  6
28  83  5
29  40  6
31  3  5
30  42  6
33  86  5
34  45  6
32  4  6
44  5  6
49  5  5
54  60  3
67  69  3
74  76  3
80  82  3

$$$$
