11657939
  -OEChem-09092002022D

130136  0     1  0  0  0  0  0999 V2000
   11.3478    5.5955    0.0000 O   0  0  0  0  0  0  0  0  0  0  0  0
   11.3503    4.9428    0.0000 O   0  0  0  0  0  0  0  0  0  0  0  0
    8.7213    7.4404    0.0000 O   0  0  0  0  0  0  0  0  0  0  0  0
    7.7624    6.2553    0.0000 O   0  0  0  0  0  0  0  0  0  0  0  0
   10.4010    8.8184    0.0000 O   0  0  0  0  0  0  0  0  0  0  0  0
    9.4651    0.0651    0.0000 O   0  0  0  0  0  0  0  0  0  0  0  0
    7.7331    0.0651    0.0000 O   0  0  0  0  0  0  0  0  0  0  0  0
    7.7331   -2.9349    0.0000 O   0  0  0  0  0  0  0  0  0  0  0  0
    6.0010   -1.9349    0.0000 O   0  0  0  0  0  0  0  0  0  0  0  0
    6.8671   -3.4349    0.0000 O   0  0  0  0  0  0  0  0  0  0  0  0
    4.2690   -4.9349    0.0000 O   0  0  0  0  0  0  0  0  0  0  0  0
    6.0010   -5.9349    0.0000 O   0  0  0  0  0  0  0  0  0  0  0  0
    4.2690   -5.9349    0.0000 O   0  0  0  0  0  0  0  0  0  0  0  0
    6.0010   -7.9349    0.0000 O   0  0  0  0  0  0  0  0  0  0  0  0
    4.2690   -8.9349    0.0000 O   0  0  0  0  0  0  0  0  0  0  0  0
    2.5369   -7.9349    0.0000 O   0  0  0  0  0  0  0  0  0  0  0  0
   10.3623    5.7653    0.0000 C   0  0  1  0  0  0  0  0  0  0  0  0
   10.3662    4.7654    0.0000 C   0  0  2  0  0  0  0  0  0  0  0  0
    9.4944    6.2620    0.0000 C   0  0  1  0  0  0  0  0  0  0  0  0
    9.5021    4.2620    0.0000 C   0  0  1  0  0  0  0  0  0  0  0  0
    9.4901    3.2204    0.0000 C   0  0  2  0  0  0  0  0  0  0  0  0
    9.6999    7.2346    0.0000 C   0  0  2  0  0  0  0  0  0  0  0  0
    8.6303    5.7587    0.0000 C   0  0  1  0  0  0  0  0  0  0  0  0
    8.6342    4.7587    0.0000 C   0  0  0  0  0  0  0  0  0  0  0  0
   10.3901    2.6962    0.0000 C   0  0  1  0  0  0  0  0  0  0  0  0
   11.0968    6.4353    0.0000 C   0  0  0  0  0  0  0  0  0  0  0  0
   11.2781    4.2620    0.0000 C   0  0  0  0  0  0  0  0  0  0  0  0
   10.6882    7.3415    0.0000 C   0  0  0  0  0  0  0  0  0  0  0  0
   11.2902    3.2204    0.0000 C   0  0  0  0  0  0  0  0  0  0  0  0
    8.5402    2.6962    0.0000 C   0  0  0  0  0  0  0  0  0  0  0  0
    8.6264    6.7586    0.0000 C   0  0  0  0  0  0  0  0  0  0  0  0
   10.4027    1.6112    0.0000 C   0  0  0  0  0  0  0  0  0  0  0  0
    8.6260    3.7238    0.0000 C   0  0  0  0  0  0  0  0  0  0  0  0
    9.5932    8.2289    0.0000 C   0  0  2  0  0  0  0  0  0  0  0  0
    8.5276    1.6112    0.0000 C   0  0  0  0  0  0  0  0  0  0  0  0
    9.4651    1.0651    0.0000 C   0  0  2  0  0  0  0  0  0  0  0  0
    8.6788    8.6337    0.0000 C   0  0  0  0  0  0  0  0  0  0  0  0
    8.5991   -0.4349    0.0000 C   0  0  2  0  0  0  0  0  0  0  0  0
    8.5991   -1.4349    0.0000 C   0  0  0  0  0  0  0  0  0  0  0  0
    7.7331   -1.9349    0.0000 C   0  0  1  0  0  0  0  0  0  0  0  0
    6.8671   -0.4349    0.0000 C   0  0  1  0  0  0  0  0  0  0  0  0
    6.8671   -1.4349    0.0000 C   0  0  1  0  0  0  0  0  0  0  0  0
    6.0010    0.0651    0.0000 C   0  0  0  0  0  0  0  0  0  0  0  0
    6.0010   -2.9349    0.0000 C   0  0  2  0  0  0  0  0  0  0  0  0
    8.5991   -3.4349    0.0000 C   0  0  0  0  0  0  0  0  0  0  0  0
    5.1350   -3.4349    0.0000 C   0  0  0  0  0  0  0  0  0  0  0  0
    5.1350   -4.4349    0.0000 C   0  0  1  0  0  0  0  0  0  0  0  0
    6.8671   -4.4349    0.0000 C   0  0  1  0  0  0  0  0  0  0  0  0
    6.0010   -4.9349    0.0000 C   0  0  1  0  0  0  0  0  0  0  0  0
    7.7331   -4.9349    0.0000 C   0  0  0  0  0  0  0  0  0  0  0  0
    5.1350   -6.4349    0.0000 C   0  0  2  0  0  0  0  0  0  0  0  0
    5.1350   -7.4349    0.0000 C   0  0  1  0  0  0  0  0  0  0  0  0
    3.4030   -4.4349    0.0000 C   0  0  0  0  0  0  0  0  0  0  0  0
    4.2690   -7.9349    0.0000 C   0  0  2  0  0  0  0  0  0  0  0  0
    3.4030   -6.4349    0.0000 C   0  0  1  0  0  0  0  0  0  0  0  0
    3.4030   -7.4349    0.0000 C   0  0  1  0  0  0  0  0  0  0  0  0
    2.5369   -5.9349    0.0000 C   0  0  0  0  0  0  0  0  0  0  0  0
    3.4030   -9.4349    0.0000 C   0  0  0  0  0  0  0  0  0  0  0  0
   10.2366    3.8342    0.0000 H   0  0  0  0  0  0  0  0  0  0  0  0
    8.0946    5.4466    0.0000 H   0  0  0  0  0  0  0  0  0  0  0  0
    8.0232    4.8640    0.0000 H   0  0  0  0  0  0  0  0  0  0  0  0
    8.4244    4.1752    0.0000 H   0  0  0  0  0  0  0  0  0  0  0  0
   11.1295    2.2768    0.0000 H   0  0  0  0  0  0  0  0  0  0  0  0
   11.4642    5.9358    0.0000 H   0  0  0  0  0  0  0  0  0  0  0  0
   11.6321    6.7481    0.0000 H   0  0  0  0  0  0  0  0  0  0  0  0
   11.8902    4.1630    0.0000 H   0  0  0  0  0  0  0  0  0  0  0  0
   11.4804    4.8481    0.0000 H   0  0  0  0  0  0  0  0  0  0  0  0
   11.2770    7.5355    0.0000 H   0  0  0  0  0  0  0  0  0  0  0  0
   10.5571    7.9475    0.0000 H   0  0  0  0  0  0  0  0  0  0  0  0
   11.5060    2.6392    0.0000 H   0  0  0  0  0  0  0  0  0  0  0  0
   11.8998    3.3336    0.0000 H   0  0  0  0  0  0  0  0  0  0  0  0
    8.3379    3.2822    0.0000 H   0  0  0  0  0  0  0  0  0  0  0  0
    7.9281    2.5971    0.0000 H   0  0  0  0  0  0  0  0  0  0  0  0
    8.9344    7.2968    0.0000 H   0  0  0  0  0  0  0  0  0  0  0  0
    8.0883    7.0666    0.0000 H   0  0  0  0  0  0  0  0  0  0  0  0
    8.3185    6.2205    0.0000 H   0  0  0  0  0  0  0  0  0  0  0  0
   10.6185    1.0300    0.0000 H   0  0  0  0  0  0  0  0  0  0  0  0
   11.0123    1.7244    0.0000 H   0  0  0  0  0  0  0  0  0  0  0  0
    8.9380    4.2595    0.0000 H   0  0  0  0  0  0  0  0  0  0  0  0
    8.0902    4.0358    0.0000 H   0  0  0  0  0  0  0  0  0  0  0  0
    8.3139    3.1880    0.0000 H   0  0  0  0  0  0  0  0  0  0  0  0
    9.5271    8.8454    0.0000 H   0  0  0  0  0  0  0  0  0  0  0  0
    7.9180    1.7244    0.0000 H   0  0  0  0  0  0  0  0  0  0  0  0
    8.3118    1.0300    0.0000 H   0  0  0  0  0  0  0  0  0  0  0  0
   11.7445    6.0720    0.0000 H   0  0  0  0  0  0  0  0  0  0  0  0
   11.9338    4.7330    0.0000 H   0  0  0  0  0  0  0  0  0  0  0  0
   10.0027    0.7562    0.0000 H   0  0  0  0  0  0  0  0  0  0  0  0
    8.5284    8.0297    0.0000 H   0  0  0  0  0  0  0  0  0  0  0  0
    7.2266    5.9432    0.0000 H   0  0  0  0  0  0  0  0  0  0  0  0
    8.9298    9.2006    0.0000 H   0  0  0  0  0  0  0  0  0  0  0  0
    8.1119    8.8847    0.0000 H   0  0  0  0  0  0  0  0  0  0  0  0
    8.4278    8.0668    0.0000 H   0  0  0  0  0  0  0  0  0  0  0  0
   10.3349    9.4349    0.0000 H   0  0  0  0  0  0  0  0  0  0  0  0
    8.5991    0.1851    0.0000 H   0  0  0  0  0  0  0  0  0  0  0  0
    8.8112   -2.0175    0.0000 H   0  0  0  0  0  0  0  0  0  0  0  0
    9.2097   -1.3272    0.0000 H   0  0  0  0  0  0  0  0  0  0  0  0
    8.2700   -2.2449    0.0000 H   0  0  0  0  0  0  0  0  0  0  0  0
    6.8671    0.1851    0.0000 H   0  0  0  0  0  0  0  0  0  0  0  0
    6.8671   -2.0549    0.0000 H   0  0  0  0  0  0  0  0  0  0  0  0
    6.3110    0.6021    0.0000 H   0  0  0  0  0  0  0  0  0  0  0  0
    5.4641    0.3751    0.0000 H   0  0  0  0  0  0  0  0  0  0  0  0
    5.6910   -0.4718    0.0000 H   0  0  0  0  0  0  0  0  0  0  0  0
    5.4641   -2.6249    0.0000 H   0  0  0  0  0  0  0  0  0  0  0  0
    8.2891   -3.9718    0.0000 H   0  0  0  0  0  0  0  0  0  0  0  0
    9.1360   -3.7449    0.0000 H   0  0  0  0  0  0  0  0  0  0  0  0
    8.9091   -2.8979    0.0000 H   0  0  0  0  0  0  0  0  0  0  0  0
    4.9230   -2.8523    0.0000 H   0  0  0  0  0  0  0  0  0  0  0  0
    4.5244   -3.5425    0.0000 H   0  0  0  0  0  0  0  0  0  0  0  0
    5.1350   -5.0549    0.0000 H   0  0  0  0  0  0  0  0  0  0  0  0
    7.4040   -4.1249    0.0000 H   0  0  0  0  0  0  0  0  0  0  0  0
    6.5380   -5.2449    0.0000 H   0  0  0  0  0  0  0  0  0  0  0  0
    7.4231   -5.4718    0.0000 H   0  0  0  0  0  0  0  0  0  0  0  0
    8.2700   -5.2449    0.0000 H   0  0  0  0  0  0  0  0  0  0  0  0
    8.0431   -4.3979    0.0000 H   0  0  0  0  0  0  0  0  0  0  0  0
    5.1350   -5.8149    0.0000 H   0  0  0  0  0  0  0  0  0  0  0  0
    5.1350   -8.0549    0.0000 H   0  0  0  0  0  0  0  0  0  0  0  0
    3.7130   -3.8979    0.0000 H   0  0  0  0  0  0  0  0  0  0  0  0
    2.8660   -4.1249    0.0000 H   0  0  0  0  0  0  0  0  0  0  0  0
    3.0930   -4.9718    0.0000 H   0  0  0  0  0  0  0  0  0  0  0  0
    3.7320   -8.2449    0.0000 H   0  0  0  0  0  0  0  0  0  0  0  0
    3.4030   -8.0549    0.0000 H   0  0  0  0  0  0  0  0  0  0  0  0
    3.4030   -5.8149    0.0000 H   0  0  0  0  0  0  0  0  0  0  0  0
    2.8469   -5.3979    0.0000 H   0  0  0  0  0  0  0  0  0  0  0  0
    2.0000   -5.6249    0.0000 H   0  0  0  0  0  0  0  0  0  0  0  0
    2.2269   -6.4718    0.0000 H   0  0  0  0  0  0  0  0  0  0  0  0
    6.0010   -8.5549    0.0000 H   0  0  0  0  0  0  0  0  0  0  0  0
    2.0000   -7.6249    0.0000 H   0  0  0  0  0  0  0  0  0  0  0  0
    3.0930   -8.8979    0.0000 H   0  0  0  0  0  0  0  0  0  0  0  0
    2.8660   -9.7449    0.0000 H   0  0  0  0  0  0  0  0  0  0  0  0
    3.7130   -9.9718    0.0000 H   0  0  0  0  0  0  0  0  0  0  0  0
 17  1  1  1  0  0  0
  1 85  1  0  0  0  0
 18  2  1  1  0  0  0
  2 86  1  0  0  0  0
 22  3  1  1  0  0  0
  3 88  1  0  0  0  0
 23  4  1  1  0  0  0
  4 89  1  0  0  0  0
 34  5  1  6  0  0  0
  5 93  1  0  0  0  0
 36  6  1  1  0  0  0
 38  6  1  1  0  0  0
  7 38  1  0  0  0  0
  7 41  1  0  0  0  0
 40  8  1  6  0  0  0
  8 45  1  0  0  0  0
 42  9  1  6  0  0  0
 44  9  1  6  0  0  0
 10 44  1  0  0  0  0
 10 48  1  0  0  0  0
 47 11  1  1  0  0  0
 11 53  1  0  0  0  0
 49 12  1  1  0  0  0
 51 12  1  1  0  0  0
 13 51  1  0  0  0  0
 13 55  1  0  0  0  0
 52 14  1  6  0  0  0
 14126  1  0  0  0  0
 54 15  1  1  0  0  0
 15 58  1  0  0  0  0
 56 16  1  6  0  0  0
 16127  1  0  0  0  0
 17 18  1  0  0  0  0
 17 19  1  0  0  0  0
 17 26  1  0  0  0  0
 18 20  1  0  0  0  0
 18 27  1  0  0  0  0
 19 22  1  0  0  0  0
 19 23  1  0  0  0  0
 19 31  1  1  0  0  0
 20 21  1  0  0  0  0
 20 24  1  0  0  0  0
 20 59  1  6  0  0  0
 21 25  1  0  0  0  0
 21 30  1  0  0  0  0
 21 33  1  1  0  0  0
 22 28  1  0  0  0  0
 22 34  1  0  0  0  0
 23 24  1  0  0  0  0
 23 60  1  0  0  0  0
 24 61  1  0  0  0  0
 24 62  1  0  0  0  0
 25 29  1  0  0  0  0
 25 32  1  0  0  0  0
 25 63  1  6  0  0  0
 26 28  1  0  0  0  0
 26 64  1  0  0  0  0
 26 65  1  0  0  0  0
 27 29  1  0  0  0  0
 27 66  1  0  0  0  0
 27 67  1  0  0  0  0
 28 68  1  0  0  0  0
 28 69  1  0  0  0  0
 29 70  1  0  0  0  0
 29 71  1  0  0  0  0
 30 35  1  0  0  0  0
 30 72  1  0  0  0  0
 30 73  1  0  0  0  0
 31 74  1  0  0  0  0
 31 75  1  0  0  0  0
 31 76  1  0  0  0  0
 32 36  1  0  0  0  0
 32 77  1  0  0  0  0
 32 78  1  0  0  0  0
 33 79  1  0  0  0  0
 33 80  1  0  0  0  0
 33 81  1  0  0  0  0
 34 37  1  0  0  0  0
 34 82  1  0  0  0  0
 35 36  1  0  0  0  0
 35 83  1  0  0  0  0
 35 84  1  0  0  0  0
 36 87  1  0  0  0  0
 37 90  1  0  0  0  0
 37 91  1  0  0  0  0
 37 92  1  0  0  0  0
 38 39  1  0  0  0  0
 38 94  1  0  0  0  0
 39 40  1  0  0  0  0
 39 95  1  0  0  0  0
 39 96  1  0  0  0  0
 40 42  1  0  0  0  0
 40 97  1  0  0  0  0
 41 42  1  0  0  0  0
 41 43  1  1  0  0  0
 41 98  1  0  0  0  0
 42 99  1  0  0  0  0
 43100  1  0  0  0  0
 43101  1  0  0  0  0
 43102  1  0  0  0  0
 44 46  1  0  0  0  0
 44103  1  0  0  0  0
 45104  1  0  0  0  0
 45105  1  0  0  0  0
 45106  1  0  0  0  0
 46 47  1  0  0  0  0
 46107  1  0  0  0  0
 46108  1  0  0  0  0
 47 49  1  0  0  0  0
 47109  1  0  0  0  0
 48 49  1  0  0  0  0
 48 50  1  6  0  0  0
 48110  1  0  0  0  0
 49111  1  0  0  0  0
 50112  1  0  0  0  0
 50113  1  0  0  0  0
 50114  1  0  0  0  0
 51 52  1  0  0  0  0
 51115  1  0  0  0  0
 52 54  1  0  0  0  0
 52116  1  0  0  0  0
 53117  1  0  0  0  0
 53118  1  0  0  0  0
 53119  1  0  0  0  0
 54 56  1  0  0  0  0
 54120  1  0  0  0  0
 55 56  1  0  0  0  0
 55 57  1  1  0  0  0
 55122  1  0  0  0  0
 56121  1  0  0  0  0
 57123  1  0  0  0  0
 57124  1  0  0  0  0
 57125  1  0  0  0  0
 58128  1  0  0  0  0
 58129  1  0  0  0  0
 58130  1  0  0  0  0
M  END
> <PUBCHEM_COMPOUND_CID>
11657939

> <PUBCHEM_COMPOUND_CANONICALIZED>
1

> <PUBCHEM_CACTVS_COMPLEXITY>
1430

> <PUBCHEM_CACTVS_HBOND_ACCEPTOR>
16

> <PUBCHEM_CACTVS_HBOND_DONOR>
7

> <PUBCHEM_CACTVS_ROTATABLE_BOND>
10

> <PUBCHEM_CACTVS_SUBSKEYS>
AAADcfB8PgAAAAAAAAAAAAAAAAAAAYAAAAA0aNECAAAAAGDAAAAAGgAACAAAD1SwgAMCCAAABgAAAAAAAAAAAAAAAAAAAAAAAAAREAIAAAAiQAAFAAAHAAHA4PwPgAAAAAAAAADCAAYQADCAAYQADAAAAA==

> <PUBCHEM_IUPAC_OPENEYE_NAME>
(3S,5S,8S,9R,10S,12R,13R,14R,17S)-3-[(2R,4S,5R,6R)-5-[(2S,4S,5R,6R)-5-[(2S,3R,4S,5R,6R)-3,5-dihydroxy-4-methoxy-6-methyl-tetrahydropyran-2-yl]oxy-4-methoxy-6-methyl-tetrahydropyran-2-yl]oxy-4-methoxy-6-methyl-tetrahydropyran-2-yl]oxy-17-[(1S)-1-hydroxyethyl]-10,13-dimethyl-1,2,3,4,5,6,7,9,11,12,15,16-dodecahydrocyclopenta[a]phenanthrene-8,12,14,17-tetrol

> <PUBCHEM_IUPAC_CAS_NAME>
(3S,5S,8S,9R,10S,12R,13R,14R,17S)-3-[[(2R,4S,5R,6R)-5-[[(2S,4S,5R,6R)-5-[[(2S,3R,4S,5R,6R)-3,5-dihydroxy-4-methoxy-6-methyl-2-oxanyl]oxy]-4-methoxy-6-methyl-2-oxanyl]oxy]-4-methoxy-6-methyl-2-oxanyl]oxy]-17-[(1S)-1-hydroxyethyl]-10,13-dimethyl-1,2,3,4,5,6,7,9,11,12,15,16-dodecahydrocyclopenta[a]phenanthrene-8,12,14,17-tetrol

> <PUBCHEM_IUPAC_NAME_MARKUP>
(3<I>S</I>,5<I>S</I>,8<I>S</I>,9<I>R</I>,10<I>S</I>,12<I>R</I>,13<I>R</I>,14<I>R</I>,17<I>S</I>)-3-[(2<I>R</I>,4<I>S</I>,5<I>R</I>,6<I>R</I>)-5-[(2<I>S</I>,4<I>S</I>,5<I>R</I>,6<I>R</I>)-5-[(2<I>S</I>,3<I>R</I>,4<I>S</I>,5<I>R</I>,6<I>R</I>)-3,5-dihydroxy-4-methoxy-6-methyloxan-2-yl]oxy-4-methoxy-6-methyloxan-2-yl]oxy-4-methoxy-6-methyloxan-2-yl]oxy-17-[(1<I>S</I>)-1-hydroxyethyl]-10,13-dimethyl-1,2,3,4,5,6,7,9,11,12,15,16-dodecahydrocyclopenta[a]phenanthrene-8,12,14,17-tetrol

> <PUBCHEM_IUPAC_NAME>
(3S,5S,8S,9R,10S,12R,13R,14R,17S)-3-[(2R,4S,5R,6R)-5-[(2S,4S,5R,6R)-5-[(2S,3R,4S,5R,6R)-3,5-dihydroxy-4-methoxy-6-methyloxan-2-yl]oxy-4-methoxy-6-methyloxan-2-yl]oxy-4-methoxy-6-methyloxan-2-yl]oxy-17-[(1S)-1-hydroxyethyl]-10,13-dimethyl-1,2,3,4,5,6,7,9,11,12,15,16-dodecahydrocyclopenta[a]phenanthrene-8,12,14,17-tetrol

> <PUBCHEM_IUPAC_SYSTEMATIC_NAME>
(3S,5S,8S,9R,10S,12R,13R,14R,17S)-3-[(2R,4S,5R,6R)-4-methoxy-5-[(2S,4S,5R,6R)-4-methoxy-5-[(2S,3R,4S,5R,6R)-4-methoxy-6-methyl-3,5-bis(oxidanyl)oxan-2-yl]oxy-6-methyl-oxan-2-yl]oxy-6-methyl-oxan-2-yl]oxy-10,13-dimethyl-17-[(1S)-1-oxidanylethyl]-1,2,3,4,5,6,7,9,11,12,15,16-dodecahydrocyclopenta[a]phenanthrene-8,12,14,17-tetrol

> <PUBCHEM_IUPAC_TRADITIONAL_NAME>
(3S,5S,8S,9R,10S,12R,13R,14R,17S)-3-[(2R,4S,5R,6R)-5-[(2S,4S,5R,6R)-5-[(2S,3R,4S,5R,6R)-3,5-dihydroxy-4-methoxy-6-methyl-tetrahydropyran-2-yl]oxy-4-methoxy-6-methyl-tetrahydropyran-2-yl]oxy-4-methoxy-6-methyl-tetrahydropyran-2-yl]oxy-17-[(1S)-1-hydroxyethyl]-10,13-dimethyl-1,2,3,4,5,6,7,9,11,12,15,16-dodecahydrocyclopenta[a]phenanthrene-8,12,14,17-tetrol

> <PUBCHEM_IUPAC_INCHI>
InChI=1S/C42H72O16/c1-20-32(45)36(52-9)33(46)37(55-20)58-35-22(3)54-31(18-27(35)51-8)57-34-21(2)53-30(17-26(34)50-7)56-25-11-12-38(5)24(16-25)10-13-41(48)28(38)19-29(44)39(6)40(47,23(4)43)14-15-42(39,41)49/h20-37,43-49H,10-19H2,1-9H3/t20-,21-,22-,23+,24+,25+,26+,27+,28-,29-,30+,31+,32-,33-,34-,35-,36+,37+,38+,39-,40-,41+,42-/m1/s1

> <PUBCHEM_IUPAC_INCHIKEY>
NTSQICOYYNAVPJ-XDGSDNFLSA-N

> <PUBCHEM_XLOGP3_AA>
0.4

> <PUBCHEM_EXACT_MASS>
832.482036

> <PUBCHEM_MOLECULAR_FORMULA>
C42H72O16

> <PUBCHEM_MOLECULAR_WEIGHT>
833

> <PUBCHEM_OPENEYE_CAN_SMILES>
CC1C(C(C(C(O1)OC2C(OC(CC2OC)OC3C(OC(CC3OC)OC4CCC5(C(C4)CCC6(C5CC(C7(C6(CCC7(C(C)O)O)O)C)O)O)C)C)C)O)OC)O

> <PUBCHEM_OPENEYE_ISO_SMILES>
C[C@@H]1[C@H]([C@@H]([C@H]([C@@H](O1)O[C@@H]2[C@H](O[C@H](C[C@@H]2OC)O[C@@H]3[C@H](O[C@H](C[C@@H]3OC)O[C@H]4CC[C@]5([C@H](C4)CC[C@@]6([C@@H]5C[C@H]([C@]7([C@@]6(CC[C@]7([C@H](C)O)O)O)C)O)O)C)C)C)O)OC)O

> <PUBCHEM_CACTVS_TPSA>
225

> <PUBCHEM_MONOISOTOPIC_WEIGHT>
832.482036

> <PUBCHEM_TOTAL_CHARGE>
0

> <PUBCHEM_HEAVY_ATOM_COUNT>
58

> <PUBCHEM_ATOM_DEF_STEREO_COUNT>
23

> <PUBCHEM_ATOM_UDEF_STEREO_COUNT>
0

> <PUBCHEM_BOND_DEF_STEREO_COUNT>
0

> <PUBCHEM_BOND_UDEF_STEREO_COUNT>
0

> <PUBCHEM_ISOTOPIC_ATOM_COUNT>
0

> <PUBCHEM_COMPONENT_COUNT>
1

> <PUBCHEM_CACTVS_TAUTO_COUNT>
-1

> <PUBCHEM_COORDINATE_TYPE>
1
5
255

> <PUBCHEM_BONDANNOTATIONS>
17  1  5
47  11  5
49  12  5
51  12  5
52  14  6
54  15  5
56  16  6
19  31  5
18  2  5
20  59  6
21  33  5
25  63  6
22  3  5
23  4  5
41  43  5
48  50  6
34  5  6
55  57  5
36  6  5
38  6  5
40  8  6
42  9  6
44  9  6

$$$$
