11274200
  -OEChem-09092001052D

115121  0     1  0  0  0  0  0999 V2000
    9.6246    5.5322    0.0000 O   0  0  0  0  0  0  0  0  0  0  0  0
   10.4774    2.0285    0.0000 O   0  0  0  0  0  0  0  0  0  0  0  0
   12.2133    3.0218    0.0000 O   0  0  0  0  0  0  0  0  0  0  0  0
    6.0010    1.4013    0.0000 O   0  0  0  0  0  0  0  0  0  0  0  0
   13.3773    4.0276    0.0000 O   0  0  0  0  0  0  0  0  0  0  0  0
   12.2094    2.0218    0.0000 O   0  0  0  0  0  0  0  0  0  0  0  0
    6.8671   -0.0987    0.0000 O   0  0  0  0  0  0  0  0  0  0  0  0
    4.2690   -1.5987    0.0000 O   0  0  0  0  0  0  0  0  0  0  0  0
    6.0010   -2.5987    0.0000 O   0  0  0  0  0  0  0  0  0  0  0  0
    4.2690   -2.5987    0.0000 O   0  0  0  0  0  0  0  0  0  0  0  0
    6.0010   -4.5987    0.0000 O   0  0  0  0  0  0  0  0  0  0  0  0
    4.2690   -5.5987    0.0000 O   0  0  0  0  0  0  0  0  0  0  0  0
    2.5369   -4.5987    0.0000 O   0  0  0  0  0  0  0  0  0  0  0  0
   10.4890    5.0284    0.0000 C   0  0  1  0  0  0  0  0  0  0  0  0
    9.6210    4.5318    0.0000 C   0  0  2  0  0  0  0  0  0  0  0  0
   11.3531    4.5251    0.0000 C   0  0  2  0  0  0  0  0  0  0  0  0
    9.6172    3.5318    0.0000 C   0  0  1  0  0  0  0  0  0  0  0  0
    8.7212    3.0006    0.0000 C   0  0  2  0  0  0  0  0  0  0  0  0
   10.7019    5.9994    0.0000 C   0  0  0  0  0  0  0  0  0  0  0  0
    8.7291    5.0699    0.0000 C   0  0  0  0  0  0  0  0  0  0  0  0
   11.3492    3.5251    0.0000 C   0  0  1  0  0  0  0  0  0  0  0  0
   10.4813    3.0284    0.0000 C   0  0  1  0  0  0  0  0  0  0  0  0
   12.0926    5.1893    0.0000 C   0  0  1  0  0  0  0  0  0  0  0  0
    7.8171    3.5179    0.0000 C   0  0  1  0  0  0  0  0  0  0  0  0
   11.6910    6.0987    0.0000 C   0  0  0  0  0  0  0  0  0  0  0  0
    7.8211    4.5595    0.0000 C   0  0  0  0  0  0  0  0  0  0  0  0
   12.2171    4.0218    0.0000 C   0  0  0  0  0  0  0  0  0  0  0  0
    8.7421    1.9158    0.0000 C   0  0  0  0  0  0  0  0  0  0  0  0
    6.8712    2.9863    0.0000 C   0  0  0  0  0  0  0  0  0  0  0  0
    9.5891    2.5039    0.0000 C   0  0  0  0  0  0  0  0  0  0  0  0
    7.8088    1.3624    0.0000 C   0  0  0  0  0  0  0  0  0  0  0  0
   13.0703    4.9794    0.0000 C   0  0  0  0  0  0  0  0  0  0  0  0
    6.8671    1.9013    0.0000 C   0  0  2  0  0  0  0  0  0  0  0  0
   13.7410    5.7211    0.0000 C   0  0  0  0  0  0  0  0  0  0  0  0
   11.3415    1.5251    0.0000 C   0  0  0  0  0  0  0  0  0  0  0  0
    6.0010    0.4013    0.0000 C   0  0  2  0  0  0  0  0  0  0  0  0
   11.3376    0.5251    0.0000 C   0  0  0  0  0  0  0  0  0  0  0  0
    5.1350   -0.0987    0.0000 C   0  0  0  0  0  0  0  0  0  0  0  0
   10.4697    0.0285    0.0000 C   0  0  0  0  0  0  0  0  0  0  0  0
   12.2017    0.0218    0.0000 C   0  0  0  0  0  0  0  0  0  0  0  0
    5.1350   -1.0987    0.0000 C   0  0  2  0  0  0  0  0  0  0  0  0
    6.8671   -1.0987    0.0000 C   0  0  1  0  0  0  0  0  0  0  0  0
    6.0010   -1.5987    0.0000 C   0  0  1  0  0  0  0  0  0  0  0  0
   12.1979   -0.9782    0.0000 C   0  0  0  0  0  0  0  0  0  0  0  0
    7.7331   -1.5987    0.0000 C   0  0  0  0  0  0  0  0  0  0  0  0
    5.1350   -3.0987    0.0000 C   0  0  2  0  0  0  0  0  0  0  0  0
    3.4030   -1.0987    0.0000 C   0  0  0  0  0  0  0  0  0  0  0  0
    5.1350   -4.0987    0.0000 C   0  0  1  0  0  0  0  0  0  0  0  0
    4.2690   -4.5987    0.0000 C   0  0  1  0  0  0  0  0  0  0  0  0
    3.4030   -3.0987    0.0000 C   0  0  1  0  0  0  0  0  0  0  0  0
    3.4030   -4.0987    0.0000 C   0  0  1  0  0  0  0  0  0  0  0  0
    2.5369   -2.5987    0.0000 C   0  0  0  0  0  0  0  0  0  0  0  0
    3.4030   -6.0987    0.0000 C   0  0  0  0  0  0  0  0  0  0  0  0
   10.3549    3.9539    0.0000 H   0  0  0  0  0  0  0  0  0  0  0  0
   10.7052    6.6194    0.0000 H   0  0  0  0  0  0  0  0  0  0  0  0
   10.0857    6.0679    0.0000 H   0  0  0  0  0  0  0  0  0  0  0  0
    9.1356    5.5381    0.0000 H   0  0  0  0  0  0  0  0  0  0  0  0
    8.3374    5.5504    0.0000 H   0  0  0  0  0  0  0  0  0  0  0  0
   11.3468    2.9051    0.0000 H   0  0  0  0  0  0  0  0  0  0  0  0
    9.9431    2.7205    0.0000 H   0  0  0  0  0  0  0  0  0  0  0  0
   12.4840    5.6702    0.0000 H   0  0  0  0  0  0  0  0  0  0  0  0
    7.0843    3.9486    0.0000 H   0  0  0  0  0  0  0  0  0  0  0  0
   12.2814    6.2882    0.0000 H   0  0  0  0  0  0  0  0  0  0  0  0
   11.5646    6.7057    0.0000 H   0  0  0  0  0  0  0  0  0  0  0  0
    7.6143    5.1440    0.0000 H   0  0  0  0  0  0  0  0  0  0  0  0
    7.2098    4.4558    0.0000 H   0  0  0  0  0  0  0  0  0  0  0  0
   11.9051    3.4860    0.0000 H   0  0  0  0  0  0  0  0  0  0  0  0
   12.7529    3.7097    0.0000 H   0  0  0  0  0  0  0  0  0  0  0  0
   12.5292    4.5575    0.0000 H   0  0  0  0  0  0  0  0  0  0  0  0
    8.9623    1.3362    0.0000 H   0  0  0  0  0  0  0  0  0  0  0  0
    9.3508    2.0336    0.0000 H   0  0  0  0  0  0  0  0  0  0  0  0
    6.6644    3.5708    0.0000 H   0  0  0  0  0  0  0  0  0  0  0  0
    6.2600    2.8826    0.0000 H   0  0  0  0  0  0  0  0  0  0  0  0
    9.2812    1.9658    0.0000 H   0  0  0  0  0  0  0  0  0  0  0  0
   10.1272    2.1960    0.0000 H   0  0  0  0  0  0  0  0  0  0  0  0
    9.8970    3.0420    0.0000 H   0  0  0  0  0  0  0  0  0  0  0  0
    7.4133    0.8850    0.0000 H   0  0  0  0  0  0  0  0  0  0  0  0
    8.2116    0.8911    0.0000 H   0  0  0  0  0  0  0  0  0  0  0  0
    6.8683    1.2813    0.0000 H   0  0  0  0  0  0  0  0  0  0  0  0
   12.7514    3.3297    0.0000 H   0  0  0  0  0  0  0  0  0  0  0  0
   14.2009    5.3052    0.0000 H   0  0  0  0  0  0  0  0  0  0  0  0
   14.1569    6.1809    0.0000 H   0  0  0  0  0  0  0  0  0  0  0  0
   13.2812    6.1369    0.0000 H   0  0  0  0  0  0  0  0  0  0  0  0
    5.4641    0.7113    0.0000 H   0  0  0  0  0  0  0  0  0  0  0  0
    4.9230    0.4839    0.0000 H   0  0  0  0  0  0  0  0  0  0  0  0
    4.5244   -0.2063    0.0000 H   0  0  0  0  0  0  0  0  0  0  0  0
   10.1618    0.5666    0.0000 H   0  0  0  0  0  0  0  0  0  0  0  0
    9.9316   -0.2795    0.0000 H   0  0  0  0  0  0  0  0  0  0  0  0
   10.7776   -0.5097    0.0000 H   0  0  0  0  0  0  0  0  0  0  0  0
   12.7399    0.3297    0.0000 H   0  0  0  0  0  0  0  0  0  0  0  0
    4.5981   -0.7887    0.0000 H   0  0  0  0  0  0  0  0  0  0  0  0
    7.4040   -0.7887    0.0000 H   0  0  0  0  0  0  0  0  0  0  0  0
    6.5380   -1.9087    0.0000 H   0  0  0  0  0  0  0  0  0  0  0  0
   11.5779   -0.9758    0.0000 H   0  0  0  0  0  0  0  0  0  0  0  0
   12.1955   -1.5982    0.0000 H   0  0  0  0  0  0  0  0  0  0  0  0
   12.8179   -0.9806    0.0000 H   0  0  0  0  0  0  0  0  0  0  0  0
    7.4231   -2.1356    0.0000 H   0  0  0  0  0  0  0  0  0  0  0  0
    8.2700   -1.9087    0.0000 H   0  0  0  0  0  0  0  0  0  0  0  0
    8.0431   -1.0617    0.0000 H   0  0  0  0  0  0  0  0  0  0  0  0
    5.1350   -2.4787    0.0000 H   0  0  0  0  0  0  0  0  0  0  0  0
    3.7130   -0.5617    0.0000 H   0  0  0  0  0  0  0  0  0  0  0  0
    2.8660   -0.7887    0.0000 H   0  0  0  0  0  0  0  0  0  0  0  0
    3.0930   -1.6356    0.0000 H   0  0  0  0  0  0  0  0  0  0  0  0
    5.1350   -4.7187    0.0000 H   0  0  0  0  0  0  0  0  0  0  0  0
    3.7320   -4.9087    0.0000 H   0  0  0  0  0  0  0  0  0  0  0  0
    3.4030   -2.4787    0.0000 H   0  0  0  0  0  0  0  0  0  0  0  0
    3.4030   -4.7187    0.0000 H   0  0  0  0  0  0  0  0  0  0  0  0
    6.0010   -5.2187    0.0000 H   0  0  0  0  0  0  0  0  0  0  0  0
    2.8469   -2.0617    0.0000 H   0  0  0  0  0  0  0  0  0  0  0  0
    2.0000   -2.2887    0.0000 H   0  0  0  0  0  0  0  0  0  0  0  0
    2.2269   -3.1356    0.0000 H   0  0  0  0  0  0  0  0  0  0  0  0
    2.0000   -4.2887    0.0000 H   0  0  0  0  0  0  0  0  0  0  0  0
    3.0930   -5.5617    0.0000 H   0  0  0  0  0  0  0  0  0  0  0  0
    2.8660   -6.4087    0.0000 H   0  0  0  0  0  0  0  0  0  0  0  0
    3.7130   -6.6356    0.0000 H   0  0  0  0  0  0  0  0  0  0  0  0
 14  1  1  6  0  0  0
 15  1  1  6  0  0  0
 22  2  1  1  0  0  0
  2 35  1  0  0  0  0
 21  3  1  6  0  0  0
  3 80  1  0  0  0  0
 33  4  1  6  0  0  0
 36  4  1  6  0  0  0
  5 32  2  0  0  0  0
  6 35  2  0  0  0  0
  7 36  1  0  0  0  0
  7 42  1  0  0  0  0
 41  8  1  6  0  0  0
  8 47  1  0  0  0  0
 43  9  1  1  0  0  0
 46  9  1  1  0  0  0
 10 46  1  0  0  0  0
 10 50  1  0  0  0  0
 48 11  1  6  0  0  0
 11108  1  0  0  0  0
 49 12  1  6  0  0  0
 12 53  1  0  0  0  0
 51 13  1  6  0  0  0
 13112  1  0  0  0  0
 14 15  1  0  0  0  0
 14 16  1  0  0  0  0
 14 19  1  0  0  0  0
 15 17  1  0  0  0  0
 15 20  1  0  0  0  0
 16 21  1  0  0  0  0
 16 23  1  0  0  0  0
 16 27  1  6  0  0  0
 17 18  1  0  0  0  0
 17 22  1  0  0  0  0
 17 54  1  1  0  0  0
 18 24  1  0  0  0  0
 18 28  1  0  0  0  0
 18 30  1  6  0  0  0
 19 25  1  0  0  0  0
 19 55  1  0  0  0  0
 19 56  1  0  0  0  0
 20 26  1  0  0  0  0
 20 57  1  0  0  0  0
 20 58  1  0  0  0  0
 21 22  1  0  0  0  0
 21 59  1  0  0  0  0
 22 60  1  0  0  0  0
 23 25  1  0  0  0  0
 23 32  1  1  0  0  0
 23 61  1  0  0  0  0
 24 26  1  0  0  0  0
 24 29  1  0  0  0  0
 24 62  1  1  0  0  0
 25 63  1  0  0  0  0
 25 64  1  0  0  0  0
 26 65  1  0  0  0  0
 26 66  1  0  0  0  0
 27 67  1  0  0  0  0
 27 68  1  0  0  0  0
 27 69  1  0  0  0  0
 28 31  1  0  0  0  0
 28 70  1  0  0  0  0
 28 71  1  0  0  0  0
 29 33  1  0  0  0  0
 29 72  1  0  0  0  0
 29 73  1  0  0  0  0
 30 74  1  0  0  0  0
 30 75  1  0  0  0  0
 30 76  1  0  0  0  0
 31 33  1  0  0  0  0
 31 77  1  0  0  0  0
 31 78  1  0  0  0  0
 32 34  1  0  0  0  0
 33 79  1  0  0  0  0
 34 81  1  0  0  0  0
 34 82  1  0  0  0  0
 34 83  1  0  0  0  0
 35 37  1  0  0  0  0
 36 38  1  0  0  0  0
 36 84  1  0  0  0  0
 37 39  1  0  0  0  0
 37 40  2  0  0  0  0
 38 41  1  0  0  0  0
 38 85  1  0  0  0  0
 38 86  1  0  0  0  0
 39 87  1  0  0  0  0
 39 88  1  0  0  0  0
 39 89  1  0  0  0  0
 40 44  1  0  0  0  0
 40 90  1  0  0  0  0
 41 43  1  0  0  0  0
 41 91  1  0  0  0  0
 42 43  1  0  0  0  0
 42 45  1  6  0  0  0
 42 92  1  0  0  0  0
 43 93  1  0  0  0  0
 44 94  1  0  0  0  0
 44 95  1  0  0  0  0
 44 96  1  0  0  0  0
 45 97  1  0  0  0  0
 45 98  1  0  0  0  0
 45 99  1  0  0  0  0
 46 48  1  0  0  0  0
 46100  1  0  0  0  0
 47101  1  0  0  0  0
 47102  1  0  0  0  0
 47103  1  0  0  0  0
 48 49  1  0  0  0  0
 48104  1  0  0  0  0
 49 51  1  0  0  0  0
 49105  1  0  0  0  0
 50 51  1  0  0  0  0
 50 52  1  1  0  0  0
 50106  1  0  0  0  0
 51107  1  0  0  0  0
 52109  1  0  0  0  0
 52110  1  0  0  0  0
 52111  1  0  0  0  0
 53113  1  0  0  0  0
 53114  1  0  0  0  0
 53115  1  0  0  0  0
M  END
> <PUBCHEM_COMPOUND_CID>
11274200

> <PUBCHEM_COMPOUND_CANONICALIZED>
1

> <PUBCHEM_CACTVS_COMPLEXITY>
1440

> <PUBCHEM_CACTVS_HBOND_ACCEPTOR>
13

> <PUBCHEM_CACTVS_HBOND_DONOR>
3

> <PUBCHEM_CACTVS_ROTATABLE_BOND>
10

> <PUBCHEM_CACTVS_SUBSKEYS>
AAADcfB8PAAAAAAAAAAAAAAAEgAAAYAAAAA0aMECBIAAAGDQAAAAGgAACAAAD1SwgAMCCAAABgCIAqDSCAAAAAAAAAAACAEAAEARFBIAIQAiUAAFAAAHIYHK7PzPgAAAAAAAAADCAAYQADCAAYAADAAAAA==

> <PUBCHEM_IUPAC_OPENEYE_NAME>
[(1S,3R,6R,7S,8S,9S,10S,11S,14S,16S)-6-acetyl-14-[(2R,4R,5R,6R)-5-[(2S,3R,4R,5R,6R)-3,5-dihydroxy-4-methoxy-6-methyl-tetrahydropyran-2-yl]oxy-4-methoxy-6-methyl-tetrahydropyran-2-yl]oxy-8-hydroxy-7,11-dimethyl-2-oxapentacyclo[8.8.0.01,3.03,7.011,16]octadecan-9-yl] (E)-2-methylbut-2-enoate

> <PUBCHEM_IUPAC_CAS_NAME>
(E)-2-methyl-2-butenoic acid [(1S,3R,6R,7S,8S,9S,10S,11S,14S,16S)-6-acetyl-14-[[(2R,4R,5R,6R)-5-[[(2S,3R,4R,5R,6R)-3,5-dihydroxy-4-methoxy-6-methyl-2-oxanyl]oxy]-4-methoxy-6-methyl-2-oxanyl]oxy]-8-hydroxy-7,11-dimethyl-2-oxapentacyclo[8.8.0.01,3.03,7.011,16]octadecan-9-yl] ester

> <PUBCHEM_IUPAC_NAME_MARKUP>
[(1<I>S</I>,3<I>R</I>,6<I>R</I>,7<I>S</I>,8<I>S</I>,9<I>S</I>,10<I>S</I>,11<I>S</I>,14<I>S</I>,16<I>S</I>)-6-acetyl-14-[(2<I>R</I>,4<I>R</I>,5<I>R</I>,6<I>R</I>)-5-[(2<I>S</I>,3<I>R</I>,4<I>R</I>,5<I>R</I>,6<I>R</I>)-3,5-dihydroxy-4-methoxy-6-methyloxan-2-yl]oxy-4-methoxy-6-methyloxan-2-yl]oxy-8-hydroxy-7,11-dimethyl-2-oxapentacyclo[8.8.0.0<SUP>1,3</SUP>.0<SUP>3,7</SUP>.0<SUP>11,16</SUP>]octadecan-9-yl] (<I>E</I>)-2-methylbut-2-enoate

> <PUBCHEM_IUPAC_NAME>
[(1S,3R,6R,7S,8S,9S,10S,11S,14S,16S)-6-acetyl-14-[(2R,4R,5R,6R)-5-[(2S,3R,4R,5R,6R)-3,5-dihydroxy-4-methoxy-6-methyloxan-2-yl]oxy-4-methoxy-6-methyloxan-2-yl]oxy-8-hydroxy-7,11-dimethyl-2-oxapentacyclo[8.8.0.01,3.03,7.011,16]octadecan-9-yl] (E)-2-methylbut-2-enoate

> <PUBCHEM_IUPAC_SYSTEMATIC_NAME>
[(1S,3R,6R,7S,8S,9S,10S,11S,14S,16S)-6-ethanoyl-14-[(2R,4R,5R,6R)-4-methoxy-5-[(2S,3R,4R,5R,6R)-4-methoxy-6-methyl-3,5-bis(oxidanyl)oxan-2-yl]oxy-6-methyl-oxan-2-yl]oxy-7,11-dimethyl-8-oxidanyl-2-oxapentacyclo[8.8.0.01,3.03,7.011,16]octadecan-9-yl] (E)-2-methylbut-2-enoate

> <PUBCHEM_IUPAC_TRADITIONAL_NAME>
(E)-2-methylbut-2-enoic acid [(1S,3R,6R,7S,8S,9S,10S,11S,14S,16S)-6-acetyl-14-[(2R,4R,5R,6R)-5-[(2S,3R,4R,5R,6R)-3,5-dihydroxy-4-methoxy-6-methyl-tetrahydropyran-2-yl]oxy-4-methoxy-6-methyl-tetrahydropyran-2-yl]oxy-8-hydroxy-7,11-dimethyl-2-oxapentacyclo[8.8.0.01,3.03,7.011,16]octadecan-9-yl] ester

> <PUBCHEM_IUPAC_INCHI>
InChI=1S/C40H62O13/c1-10-19(2)35(45)51-32-33-37(6)14-12-24(17-23(37)11-15-39(33)40(53-39)16-13-25(20(3)41)38(40,7)34(32)44)50-27-18-26(46-8)30(22(5)48-27)52-36-29(43)31(47-9)28(42)21(4)49-36/h10,21-34,36,42-44H,11-18H2,1-9H3/b19-10+/t21-,22-,23+,24+,25+,26-,27+,28-,29-,30-,31-,32+,33-,34-,36+,37+,38+,39+,40-/m1/s1

> <PUBCHEM_IUPAC_INCHIKEY>
XMNBXDAHYPHWHB-OFGUMKOSSA-N

> <PUBCHEM_XLOGP3_AA>
2.5

> <PUBCHEM_EXACT_MASS>
750.419042

> <PUBCHEM_MOLECULAR_FORMULA>
C40H62O13

> <PUBCHEM_MOLECULAR_WEIGHT>
750.9

> <PUBCHEM_OPENEYE_CAN_SMILES>
CC=C(C)C(=O)OC1C2C3(CCC(CC3CCC24C5(O4)CCC(C5(C1O)C)C(=O)C)OC6CC(C(C(O6)C)OC7C(C(C(C(O7)C)O)OC)O)OC)C

> <PUBCHEM_OPENEYE_ISO_SMILES>
C/C=C(\C)/C(=O)O[C@H]1[C@@H]2[C@]3(CC[C@@H](C[C@@H]3CC[C@@]24[C@@]5(O4)CC[C@H]([C@]5([C@@H]1O)C)C(=O)C)O[C@H]6C[C@H]([C@@H]([C@H](O6)C)O[C@H]7[C@@H]([C@@H]([C@@H]([C@H](O7)C)O)OC)O)OC)C

> <PUBCHEM_CACTVS_TPSA>
172

> <PUBCHEM_MONOISOTOPIC_WEIGHT>
750.419042

> <PUBCHEM_TOTAL_CHARGE>
0

> <PUBCHEM_HEAVY_ATOM_COUNT>
53

> <PUBCHEM_ATOM_DEF_STEREO_COUNT>
19

> <PUBCHEM_ATOM_UDEF_STEREO_COUNT>
0

> <PUBCHEM_BOND_DEF_STEREO_COUNT>
1

> <PUBCHEM_BOND_UDEF_STEREO_COUNT>
0

> <PUBCHEM_ISOTOPIC_ATOM_COUNT>
0

> <PUBCHEM_COMPONENT_COUNT>
1

> <PUBCHEM_CACTVS_TAUTO_COUNT>
-1

> <PUBCHEM_COORDINATE_TYPE>
1
5
255

> <PUBCHEM_BONDANNOTATIONS>
14  1  6
15  1  6
48  11  6
49  12  6
51  13  6
16  27  6
17  54  5
18  30  6
22  2  5
23  32  5
24  62  5
21  3  6
33  4  6
36  4  6
42  45  6
50  52  5
41  8  6
43  9  5
46  9  5

$$$$
