102153487
  -OEChem-09092000262D

118123  0     1  0  0  0  0  0999 V2000
    9.2826    5.3328    0.0000 O   0  0  0  0  0  0  0  0  0  0  0  0
    9.8491    5.6569    0.0000 O   0  0  0  0  0  0  0  0  0  0  0  0
   10.4774    1.8884    0.0000 O   0  0  0  0  0  0  0  0  0  0  0  0
   12.2133    2.8817    0.0000 O   0  0  0  0  0  0  0  0  0  0  0  0
    6.0010    1.2613    0.0000 O   0  0  0  0  0  0  0  0  0  0  0  0
   13.3773    3.8876    0.0000 O   0  0  0  0  0  0  0  0  0  0  0  0
    6.8671   -0.2387    0.0000 O   0  0  0  0  0  0  0  0  0  0  0  0
   12.2094    1.8818    0.0000 O   0  0  0  0  0  0  0  0  0  0  0  0
    4.2690   -1.7387    0.0000 O   0  0  0  0  0  0  0  0  0  0  0  0
    6.0010   -2.7387    0.0000 O   0  0  0  0  0  0  0  0  0  0  0  0
    4.2690   -2.7387    0.0000 O   0  0  0  0  0  0  0  0  0  0  0  0
    6.0010   -4.7387    0.0000 O   0  0  0  0  0  0  0  0  0  0  0  0
    4.2690   -5.7387    0.0000 O   0  0  0  0  0  0  0  0  0  0  0  0
    2.5369   -4.7387    0.0000 O   0  0  0  0  0  0  0  0  0  0  0  0
    9.6210    4.3918    0.0000 C   0  0  2  0  0  0  0  0  0  0  0  0
   10.4890    4.8884    0.0000 C   0  0  1  0  0  0  0  0  0  0  0  0
    9.6172    3.3918    0.0000 C   0  0  1  0  0  0  0  0  0  0  0  0
   11.3531    4.3851    0.0000 C   0  0  2  0  0  0  0  0  0  0  0  0
    8.7212    2.8605    0.0000 C   0  0  2  0  0  0  0  0  0  0  0  0
   10.4813    2.8884    0.0000 C   0  0  1  0  0  0  0  0  0  0  0  0
   11.3492    3.3851    0.0000 C   0  0  1  0  0  0  0  0  0  0  0  0
    7.8171    3.3779    0.0000 C   0  0  1  0  0  0  0  0  0  0  0  0
   12.0926    5.0493    0.0000 C   0  0  2  0  0  0  0  0  0  0  0  0
    8.7291    4.9298    0.0000 C   0  0  0  0  0  0  0  0  0  0  0  0
   10.7019    5.8594    0.0000 C   0  0  0  0  0  0  0  0  0  0  0  0
    7.8211    4.4195    0.0000 C   0  0  0  0  0  0  0  0  0  0  0  0
   11.6910    5.9586    0.0000 C   0  0  0  0  0  0  0  0  0  0  0  0
    8.7421    1.7758    0.0000 C   0  0  0  0  0  0  0  0  0  0  0  0
    6.8712    2.8463    0.0000 C   0  0  0  0  0  0  0  0  0  0  0  0
   12.2171    3.8817    0.0000 C   0  0  0  0  0  0  0  0  0  0  0  0
    9.5891    2.3639    0.0000 C   0  0  0  0  0  0  0  0  0  0  0  0
    7.8088    1.2224    0.0000 C   0  0  0  0  0  0  0  0  0  0  0  0
    6.8671    1.7613    0.0000 C   0  0  2  0  0  0  0  0  0  0  0  0
   13.0703    4.8393    0.0000 C   0  0  0  0  0  0  0  0  0  0  0  0
   13.7410    5.5810    0.0000 C   0  0  0  0  0  0  0  0  0  0  0  0
   11.3415    1.3851    0.0000 C   0  0  0  0  0  0  0  0  0  0  0  0
    6.0010    0.2613    0.0000 C   0  0  2  0  0  0  0  0  0  0  0  0
   11.3376    0.3851    0.0000 C   0  0  0  0  0  0  0  0  0  0  0  0
    5.1350   -0.2387    0.0000 C   0  0  0  0  0  0  0  0  0  0  0  0
    5.1350   -1.2387    0.0000 C   0  0  1  0  0  0  0  0  0  0  0  0
    6.8671   -1.2387    0.0000 C   0  0  1  0  0  0  0  0  0  0  0  0
    6.0010   -1.7387    0.0000 C   0  0  1  0  0  0  0  0  0  0  0  0
   10.4697   -0.1116    0.0000 C   0  0  0  0  0  0  0  0  0  0  0  0
   12.2017   -0.1182    0.0000 C   0  0  0  0  0  0  0  0  0  0  0  0
    7.7331   -1.7387    0.0000 C   0  0  0  0  0  0  0  0  0  0  0  0
   12.1979   -1.1182    0.0000 C   0  0  0  0  0  0  0  0  0  0  0  0
    5.1350   -3.2387    0.0000 C   0  0  2  0  0  0  0  0  0  0  0  0
    3.4030   -1.2387    0.0000 C   0  0  0  0  0  0  0  0  0  0  0  0
    5.1350   -4.2387    0.0000 C   0  0  1  0  0  0  0  0  0  0  0  0
    4.2690   -4.7387    0.0000 C   0  0  1  0  0  0  0  0  0  0  0  0
    3.4030   -3.2387    0.0000 C   0  0  1  0  0  0  0  0  0  0  0  0
    3.4030   -4.2387    0.0000 C   0  0  1  0  0  0  0  0  0  0  0  0
    2.5369   -2.7387    0.0000 C   0  0  0  0  0  0  0  0  0  0  0  0
    3.4030   -6.2387    0.0000 C   0  0  0  0  0  0  0  0  0  0  0  0
   10.3549    3.8139    0.0000 H   0  0  0  0  0  0  0  0  0  0  0  0
    9.9431    2.5805    0.0000 H   0  0  0  0  0  0  0  0  0  0  0  0
   11.3468    2.7651    0.0000 H   0  0  0  0  0  0  0  0  0  0  0  0
    7.0843    3.8085    0.0000 H   0  0  0  0  0  0  0  0  0  0  0  0
   12.4840    5.5301    0.0000 H   0  0  0  0  0  0  0  0  0  0  0  0
    9.1356    5.3981    0.0000 H   0  0  0  0  0  0  0  0  0  0  0  0
    8.3374    5.4104    0.0000 H   0  0  0  0  0  0  0  0  0  0  0  0
   10.7052    6.4794    0.0000 H   0  0  0  0  0  0  0  0  0  0  0  0
   10.0857    5.9278    0.0000 H   0  0  0  0  0  0  0  0  0  0  0  0
    7.6143    5.0040    0.0000 H   0  0  0  0  0  0  0  0  0  0  0  0
    7.2098    4.3158    0.0000 H   0  0  0  0  0  0  0  0  0  0  0  0
   12.2814    6.1481    0.0000 H   0  0  0  0  0  0  0  0  0  0  0  0
   11.5646    6.5656    0.0000 H   0  0  0  0  0  0  0  0  0  0  0  0
    8.9623    1.1962    0.0000 H   0  0  0  0  0  0  0  0  0  0  0  0
    9.3508    1.8936    0.0000 H   0  0  0  0  0  0  0  0  0  0  0  0
    6.6644    3.4308    0.0000 H   0  0  0  0  0  0  0  0  0  0  0  0
    6.2600    2.7425    0.0000 H   0  0  0  0  0  0  0  0  0  0  0  0
   11.9051    3.3460    0.0000 H   0  0  0  0  0  0  0  0  0  0  0  0
   12.7529    3.5697    0.0000 H   0  0  0  0  0  0  0  0  0  0  0  0
   12.5292    4.4175    0.0000 H   0  0  0  0  0  0  0  0  0  0  0  0
    9.2812    1.8258    0.0000 H   0  0  0  0  0  0  0  0  0  0  0  0
   10.1272    2.0560    0.0000 H   0  0  0  0  0  0  0  0  0  0  0  0
    9.8970    2.9020    0.0000 H   0  0  0  0  0  0  0  0  0  0  0  0
    7.4133    0.7449    0.0000 H   0  0  0  0  0  0  0  0  0  0  0  0
    8.2116    0.7511    0.0000 H   0  0  0  0  0  0  0  0  0  0  0  0
    6.8683    1.1413    0.0000 H   0  0  0  0  0  0  0  0  0  0  0  0
    8.8092    5.7331    0.0000 H   0  0  0  0  0  0  0  0  0  0  0  0
   10.0634    6.2387    0.0000 H   0  0  0  0  0  0  0  0  0  0  0  0
   12.7514    3.1897    0.0000 H   0  0  0  0  0  0  0  0  0  0  0  0
   14.2009    5.1652    0.0000 H   0  0  0  0  0  0  0  0  0  0  0  0
   14.1569    6.0409    0.0000 H   0  0  0  0  0  0  0  0  0  0  0  0
   13.2812    5.9969    0.0000 H   0  0  0  0  0  0  0  0  0  0  0  0
    5.4641    0.5713    0.0000 H   0  0  0  0  0  0  0  0  0  0  0  0
    4.9230    0.3439    0.0000 H   0  0  0  0  0  0  0  0  0  0  0  0
    4.5244   -0.3464    0.0000 H   0  0  0  0  0  0  0  0  0  0  0  0
    5.1350   -1.8587    0.0000 H   0  0  0  0  0  0  0  0  0  0  0  0
    7.4040   -0.9287    0.0000 H   0  0  0  0  0  0  0  0  0  0  0  0
    6.5380   -2.0487    0.0000 H   0  0  0  0  0  0  0  0  0  0  0  0
   10.1618    0.4266    0.0000 H   0  0  0  0  0  0  0  0  0  0  0  0
    9.9316   -0.4195    0.0000 H   0  0  0  0  0  0  0  0  0  0  0  0
   10.7776   -0.6497    0.0000 H   0  0  0  0  0  0  0  0  0  0  0  0
   12.7399    0.1897    0.0000 H   0  0  0  0  0  0  0  0  0  0  0  0
    7.4231   -2.2756    0.0000 H   0  0  0  0  0  0  0  0  0  0  0  0
    8.2700   -2.0487    0.0000 H   0  0  0  0  0  0  0  0  0  0  0  0
    8.0431   -1.2018    0.0000 H   0  0  0  0  0  0  0  0  0  0  0  0
   11.5779   -1.1158    0.0000 H   0  0  0  0  0  0  0  0  0  0  0  0
   12.1955   -1.7382    0.0000 H   0  0  0  0  0  0  0  0  0  0  0  0
   12.8179   -1.1206    0.0000 H   0  0  0  0  0  0  0  0  0  0  0  0
    5.1350   -2.6187    0.0000 H   0  0  0  0  0  0  0  0  0  0  0  0
    3.7130   -0.7018    0.0000 H   0  0  0  0  0  0  0  0  0  0  0  0
    2.8660   -0.9287    0.0000 H   0  0  0  0  0  0  0  0  0  0  0  0
    3.0930   -1.7756    0.0000 H   0  0  0  0  0  0  0  0  0  0  0  0
    5.1350   -4.8587    0.0000 H   0  0  0  0  0  0  0  0  0  0  0  0
    3.7320   -5.0487    0.0000 H   0  0  0  0  0  0  0  0  0  0  0  0
    3.4030   -2.6187    0.0000 H   0  0  0  0  0  0  0  0  0  0  0  0
    3.4030   -4.8587    0.0000 H   0  0  0  0  0  0  0  0  0  0  0  0
    6.0010   -5.3587    0.0000 H   0  0  0  0  0  0  0  0  0  0  0  0
    2.8469   -2.2018    0.0000 H   0  0  0  0  0  0  0  0  0  0  0  0
    2.0000   -2.4287    0.0000 H   0  0  0  0  0  0  0  0  0  0  0  0
    2.2269   -3.2756    0.0000 H   0  0  0  0  0  0  0  0  0  0  0  0
    2.0000   -4.4287    0.0000 H   0  0  0  0  0  0  0  0  0  0  0  0
    3.0930   -5.7018    0.0000 H   0  0  0  0  0  0  0  0  0  0  0  0
    2.8660   -6.5487    0.0000 H   0  0  0  0  0  0  0  0  0  0  0  0
    3.7130   -6.7756    0.0000 H   0  0  0  0  0  0  0  0  0  0  0  0
 15  1  1  6  0  0  0
  1 81  1  0  0  0  0
 16  2  1  6  0  0  0
  2 82  1  0  0  0  0
 20  3  1  1  0  0  0
  3 36  1  0  0  0  0
 21  4  1  6  0  0  0
  4 83  1  0  0  0  0
 33  5  1  6  0  0  0
 37  5  1  6  0  0  0
  6 34  2  0  0  0  0
  7 37  1  0  0  0  0
  7 41  1  0  0  0  0
  8 36  2  0  0  0  0
 40  9  1  1  0  0  0
  9 48  1  0  0  0  0
 42 10  1  1  0  0  0
 47 10  1  1  0  0  0
 11 47  1  0  0  0  0
 11 51  1  0  0  0  0
 49 12  1  6  0  0  0
 12111  1  0  0  0  0
 50 13  1  6  0  0  0
 13 54  1  0  0  0  0
 52 14  1  6  0  0  0
 14115  1  0  0  0  0
 15 16  1  0  0  0  0
 15 17  1  0  0  0  0
 15 24  1  0  0  0  0
 16 18  1  0  0  0  0
 16 25  1  0  0  0  0
 17 19  1  0  0  0  0
 17 20  1  0  0  0  0
 17 55  1  1  0  0  0
 18 21  1  0  0  0  0
 18 23  1  0  0  0  0
 18 30  1  6  0  0  0
 19 22  1  0  0  0  0
 19 28  1  0  0  0  0
 19 31  1  6  0  0  0
 20 21  1  0  0  0  0
 20 56  1  0  0  0  0
 21 57  1  0  0  0  0
 22 26  1  0  0  0  0
 22 29  1  0  0  0  0
 22 58  1  1  0  0  0
 23 27  1  0  0  0  0
 23 34  1  6  0  0  0
 23 59  1  0  0  0  0
 24 26  1  0  0  0  0
 24 60  1  0  0  0  0
 24 61  1  0  0  0  0
 25 27  1  0  0  0  0
 25 62  1  0  0  0  0
 25 63  1  0  0  0  0
 26 64  1  0  0  0  0
 26 65  1  0  0  0  0
 27 66  1  0  0  0  0
 27 67  1  0  0  0  0
 28 32  1  0  0  0  0
 28 68  1  0  0  0  0
 28 69  1  0  0  0  0
 29 33  1  0  0  0  0
 29 70  1  0  0  0  0
 29 71  1  0  0  0  0
 30 72  1  0  0  0  0
 30 73  1  0  0  0  0
 30 74  1  0  0  0  0
 31 75  1  0  0  0  0
 31 76  1  0  0  0  0
 31 77  1  0  0  0  0
 32 33  1  0  0  0  0
 32 78  1  0  0  0  0
 32 79  1  0  0  0  0
 33 80  1  0  0  0  0
 34 35  1  0  0  0  0
 35 84  1  0  0  0  0
 35 85  1  0  0  0  0
 35 86  1  0  0  0  0
 36 38  1  0  0  0  0
 37 39  1  0  0  0  0
 37 87  1  0  0  0  0
 38 43  1  0  0  0  0
 38 44  2  0  0  0  0
 39 40  1  0  0  0  0
 39 88  1  0  0  0  0
 39 89  1  0  0  0  0
 40 42  1  0  0  0  0
 40 90  1  0  0  0  0
 41 42  1  0  0  0  0
 41 45  1  6  0  0  0
 41 91  1  0  0  0  0
 42 92  1  0  0  0  0
 43 93  1  0  0  0  0
 43 94  1  0  0  0  0
 43 95  1  0  0  0  0
 44 46  1  0  0  0  0
 44 96  1  0  0  0  0
 45 97  1  0  0  0  0
 45 98  1  0  0  0  0
 45 99  1  0  0  0  0
 46100  1  0  0  0  0
 46101  1  0  0  0  0
 46102  1  0  0  0  0
 47 49  1  0  0  0  0
 47103  1  0  0  0  0
 48104  1  0  0  0  0
 48105  1  0  0  0  0
 48106  1  0  0  0  0
 49 50  1  0  0  0  0
 49107  1  0  0  0  0
 50 52  1  0  0  0  0
 50108  1  0  0  0  0
 51 52  1  0  0  0  0
 51 53  1  1  0  0  0
 51109  1  0  0  0  0
 52110  1  0  0  0  0
 53112  1  0  0  0  0
 53113  1  0  0  0  0
 53114  1  0  0  0  0
 54116  1  0  0  0  0
 54117  1  0  0  0  0
 54118  1  0  0  0  0
M  END
> <PUBCHEM_COMPOUND_CID>
102153487

> <PUBCHEM_COMPOUND_CANONICALIZED>
1

> <PUBCHEM_CACTVS_COMPLEXITY>
1420

> <PUBCHEM_CACTVS_HBOND_ACCEPTOR>
14

> <PUBCHEM_CACTVS_HBOND_DONOR>
5

> <PUBCHEM_CACTVS_ROTATABLE_BOND>
10

> <PUBCHEM_CACTVS_SUBSKEYS>
AAADcfB8PAAAAAAAAAAAAAAAAAAAAYAAAAA0aMECAAAAAGDAAAAAGgAACAAAD1SwgAMCCAAABgCIAqDSCAAAAAAAAAAACAEAAEARFBIAIQAiUAAFAAAHIYHK7PzPgAAAAAAAAADCAAYQADCAAYAADAAAAA==

> <PUBCHEM_IUPAC_OPENEYE_NAME>
[(3S,5S,8S,9S,10S,11S,12S,13S,14R,17S)-17-acetyl-3-[(2R,4S,5R,6R)-5-[(2S,3R,4R,5R,6R)-3,5-dihydroxy-4-methoxy-6-methyl-tetrahydropyran-2-yl]oxy-4-methoxy-6-methyl-tetrahydropyran-2-yl]oxy-8,12,14-trihydroxy-10,13-dimethyl-2,3,4,5,6,7,9,11,12,15,16,17-dodecahydro-1H-cyclopenta[a]phenanthren-11-yl] (E)-2-methylbut-2-enoate

> <PUBCHEM_IUPAC_CAS_NAME>
(E)-2-methyl-2-butenoic acid [(3S,5S,8S,9S,10S,11S,12S,13S,14R,17S)-17-acetyl-3-[[(2R,4S,5R,6R)-5-[[(2S,3R,4R,5R,6R)-3,5-dihydroxy-4-methoxy-6-methyl-2-oxanyl]oxy]-4-methoxy-6-methyl-2-oxanyl]oxy]-8,12,14-trihydroxy-10,13-dimethyl-2,3,4,5,6,7,9,11,12,15,16,17-dodecahydro-1H-cyclopenta[a]phenanthren-11-yl] ester

> <PUBCHEM_IUPAC_NAME_MARKUP>
[(3<I>S</I>,5<I>S</I>,8<I>S</I>,9<I>S</I>,10<I>S</I>,11<I>S</I>,12<I>S</I>,13<I>S</I>,14<I>R</I>,17<I>S</I>)-17-acetyl-3-[(2<I>R</I>,4<I>S</I>,5<I>R</I>,6<I>R</I>)-5-[(2<I>S</I>,3<I>R</I>,4<I>R</I>,5<I>R</I>,6<I>R</I>)-3,5-dihydroxy-4-methoxy-6-methyloxan-2-yl]oxy-4-methoxy-6-methyloxan-2-yl]oxy-8,12,14-trihydroxy-10,13-dimethyl-2,3,4,5,6,7,9,11,12,15,16,17-dodecahydro-1<I>H</I>-cyclopenta[a]phenanthren-11-yl] (<I>E</I>)-2-methylbut-2-enoate

> <PUBCHEM_IUPAC_NAME>
[(3S,5S,8S,9S,10S,11S,12S,13S,14R,17S)-17-acetyl-3-[(2R,4S,5R,6R)-5-[(2S,3R,4R,5R,6R)-3,5-dihydroxy-4-methoxy-6-methyloxan-2-yl]oxy-4-methoxy-6-methyloxan-2-yl]oxy-8,12,14-trihydroxy-10,13-dimethyl-2,3,4,5,6,7,9,11,12,15,16,17-dodecahydro-1H-cyclopenta[a]phenanthren-11-yl] (E)-2-methylbut-2-enoate

> <PUBCHEM_IUPAC_SYSTEMATIC_NAME>
[(3S,5S,8S,9S,10S,11S,12S,13S,14R,17S)-17-ethanoyl-3-[(2R,4S,5R,6R)-4-methoxy-5-[(2S,3R,4R,5R,6R)-4-methoxy-6-methyl-3,5-bis(oxidanyl)oxan-2-yl]oxy-6-methyl-oxan-2-yl]oxy-10,13-dimethyl-8,12,14-tris(oxidanyl)-2,3,4,5,6,7,9,11,12,15,16,17-dodecahydro-1H-cyclopenta[a]phenanthren-11-yl] (E)-2-methylbut-2-enoate

> <PUBCHEM_IUPAC_TRADITIONAL_NAME>
(E)-2-methylbut-2-enoic acid [(3S,5S,8S,9S,10S,11S,12S,13S,14R,17S)-17-acetyl-3-[(2R,4S,5R,6R)-5-[(2S,3R,4R,5R,6R)-3,5-dihydroxy-4-methoxy-6-methyl-tetrahydropyran-2-yl]oxy-4-methoxy-6-methyl-tetrahydropyran-2-yl]oxy-8,12,14-trihydroxy-10,13-dimethyl-2,3,4,5,6,7,9,11,12,15,16,17-dodecahydro-1H-cyclopenta[a]phenanthren-11-yl] ester

> <PUBCHEM_IUPAC_INCHI>
InChI=1S/C40H64O14/c1-10-19(2)35(45)53-32-33-37(6)14-12-24(17-23(37)11-15-39(33,46)40(47)16-13-25(20(3)41)38(40,7)34(32)44)52-27-18-26(48-8)30(22(5)50-27)54-36-29(43)31(49-9)28(42)21(4)51-36/h10,21-34,36,42-44,46-47H,11-18H2,1-9H3/b19-10+/t21-,22-,23+,24+,25-,26+,27+,28-,29-,30-,31-,32+,33-,34-,36+,37+,38+,39+,40-/m1/s1

> <PUBCHEM_IUPAC_INCHIKEY>
NRTKFBLBHAJOMO-LHCIRHGWSA-N

> <PUBCHEM_XLOGP3_AA>
1.5

> <PUBCHEM_EXACT_MASS>
768.429607

> <PUBCHEM_MOLECULAR_FORMULA>
C40H64O14

> <PUBCHEM_MOLECULAR_WEIGHT>
768.9

> <PUBCHEM_OPENEYE_CAN_SMILES>
CC=C(C)C(=O)OC1C2C3(CCC(CC3CCC2(C4(CCC(C4(C1O)C)C(=O)C)O)O)OC5CC(C(C(O5)C)OC6C(C(C(C(O6)C)O)OC)O)OC)C

> <PUBCHEM_OPENEYE_ISO_SMILES>
C/C=C(\C)/C(=O)O[C@H]1[C@@H]2[C@]3(CC[C@@H](C[C@@H]3CC[C@]2([C@]4(CC[C@@H]([C@]4([C@@H]1O)C)C(=O)C)O)O)O[C@H]5C[C@@H]([C@@H]([C@H](O5)C)O[C@H]6[C@@H]([C@@H]([C@@H]([C@H](O6)C)O)OC)O)OC)C

> <PUBCHEM_CACTVS_TPSA>
200

> <PUBCHEM_MONOISOTOPIC_WEIGHT>
768.429607

> <PUBCHEM_TOTAL_CHARGE>
0

> <PUBCHEM_HEAVY_ATOM_COUNT>
54

> <PUBCHEM_ATOM_DEF_STEREO_COUNT>
19

> <PUBCHEM_ATOM_UDEF_STEREO_COUNT>
0

> <PUBCHEM_BOND_DEF_STEREO_COUNT>
1

> <PUBCHEM_BOND_UDEF_STEREO_COUNT>
0

> <PUBCHEM_ISOTOPIC_ATOM_COUNT>
0

> <PUBCHEM_COMPONENT_COUNT>
1

> <PUBCHEM_CACTVS_TAUTO_COUNT>
-1

> <PUBCHEM_COORDINATE_TYPE>
1
5
255

> <PUBCHEM_BONDANNOTATIONS>
15  1  6
42  10  5
47  10  5
49  12  6
50  13  6
52  14  6
17  55  5
18  30  6
19  31  6
16  2  6
22  58  5
23  34  6
20  3  5
21  4  6
41  45  6
33  5  6
37  5  6
51  53  5
40  9  5

$$$$
