44566641
  -OEChem-09182006072D

139146  0     1  0  0  0  0  0999 V2000
    9.4651   -0.1941    0.0000 O   0  0  0  0  0  0  0  0  0  0  0  0
   11.2189    9.0853    0.0000 O   0  0  0  0  0  0  0  0  0  0  0  0
   11.9093    0.4975    0.0000 O   0  0  0  0  0  0  0  0  0  0  0  0
    7.7331   -0.1941    0.0000 O   0  0  0  0  0  0  0  0  0  0  0  0
    9.4651   -2.1941    0.0000 O   0  0  0  0  0  0  0  0  0  0  0  0
    7.7331   -3.1941    0.0000 O   0  0  0  0  0  0  0  0  0  0  0  0
    6.0010   -2.1941    0.0000 O   0  0  0  0  0  0  0  0  0  0  0  0
    6.0010   -3.1941    0.0000 O   0  0  0  0  0  0  0  0  0  0  0  0
    7.7331   -5.1941    0.0000 O   0  0  0  0  0  0  0  0  0  0  0  0
    6.0010   -6.1941    0.0000 O   0  0  0  0  0  0  0  0  0  0  0  0
    4.2690   -5.1941    0.0000 O   0  0  0  0  0  0  0  0  0  0  0  0
    3.4030   -3.6941    0.0000 O   0  0  0  0  0  0  0  0  0  0  0  0
    5.1350   -6.6941    0.0000 O   0  0  0  0  0  0  0  0  0  0  0  0
    2.5369   -6.1941    0.0000 O   0  0  0  0  0  0  0  0  0  0  0  0
    2.5369   -8.1941    0.0000 O   0  0  0  0  0  0  0  0  0  0  0  0
    4.2690   -9.1941    0.0000 O   0  0  0  0  0  0  0  0  0  0  0  0
   10.3662    4.5061    0.0000 C   0  0  1  0  0  0  0  0  0  0  0  0
   10.3623    5.5061    0.0000 C   0  0  1  0  0  0  0  0  0  0  0  0
    9.4901    2.9612    0.0000 C   0  0  1  0  0  0  0  0  0  0  0  0
   10.3901    2.4369    0.0000 C   0  0  2  0  0  0  0  0  0  0  0  0
    9.5021    4.0028    0.0000 C   0  0  0  0  0  0  0  0  0  0  0  0
   10.3703    7.5754    0.0000 C   0  0  1  0  0  0  0  0  0  0  0  0
    9.4743    7.0442    0.0000 C   0  0  2  0  0  0  0  0  0  0  0  0
    9.4944    6.0027    0.0000 C   0  0  0  0  0  0  0  0  0  0  0  0
   11.2781    4.0028    0.0000 C   0  0  0  0  0  0  0  0  0  0  0  0
   10.4027    1.3520    0.0000 C   0  0  1  0  0  0  0  0  0  0  0  0
   11.2704    6.0164    0.0000 C   0  0  0  0  0  0  0  0  0  0  0  0
   11.2902    2.9612    0.0000 C   0  0  0  0  0  0  0  0  0  0  0  0
   11.2744    7.0580    0.0000 C   0  0  0  0  0  0  0  0  0  0  0  0
    8.5402    2.4369    0.0000 C   0  0  0  0  0  0  0  0  0  0  0  0
    8.5204    7.5611    0.0000 C   0  0  0  0  0  0  0  0  0  0  0  0
    9.4651    0.8059    0.0000 C   0  0  2  0  0  0  0  0  0  0  0  0
   10.3745    8.6604    0.0000 C   0  0  0  0  0  0  0  0  0  0  0  0
   11.3503    4.6835    0.0000 C   0  0  0  0  0  0  0  0  0  0  0  0
    8.4995    8.6459    0.0000 C   0  0  0  0  0  0  0  0  0  0  0  0
    8.5276    1.3520    0.0000 C   0  0  0  0  0  0  0  0  0  0  0  0
   11.3478    5.3362    0.0000 C   0  0  0  0  0  0  0  0  0  0  0  0
    8.6342    4.4994    0.0000 C   0  0  0  0  0  0  0  0  0  0  0  0
    8.6260    3.4645    0.0000 C   0  0  0  0  0  0  0  0  0  0  0  0
    8.6303    5.4994    0.0000 C   0  0  0  0  0  0  0  0  0  0  0  0
    9.4328    9.1992    0.0000 C   0  0  0  0  0  0  0  0  0  0  0  0
   11.2305    8.0854    0.0000 C   0  0  0  0  0  0  0  0  0  0  0  0
   11.4026    1.3597    0.0000 C   0  0  0  0  0  0  0  0  0  0  0  0
   10.9093    0.4898    0.0000 C   0  0  0  0  0  0  0  0  0  0  0  0
    7.9862    9.5041    0.0000 C   0  0  0  0  0  0  0  0  0  0  0  0
    7.4996    8.6305    0.0000 C   0  0  0  0  0  0  0  0  0  0  0  0
    8.5991   -0.6941    0.0000 C   0  0  2  0  0  0  0  0  0  0  0  0
    8.5991   -1.6941    0.0000 C   0  0  1  0  0  0  0  0  0  0  0  0
    7.7331   -2.1941    0.0000 C   0  0  2  0  0  0  0  0  0  0  0  0
    6.8671   -0.6941    0.0000 C   0  0  1  0  0  0  0  0  0  0  0  0
    6.8671   -1.6941    0.0000 C   0  0  2  0  0  0  0  0  0  0  0  0
    6.0010   -0.1941    0.0000 C   0  0  0  0  0  0  0  0  0  0  0  0
    6.8671   -3.6941    0.0000 C   0  0  2  0  0  0  0  0  0  0  0  0
    6.8671   -4.6941    0.0000 C   0  0  1  0  0  0  0  0  0  0  0  0
    6.0010   -5.1941    0.0000 C   0  0  2  0  0  0  0  0  0  0  0  0
    5.1350   -3.6941    0.0000 C   0  0  1  0  0  0  0  0  0  0  0  0
    5.1350   -4.6941    0.0000 C   0  0  1  0  0  0  0  0  0  0  0  0
    4.2690   -3.1941    0.0000 C   0  0  0  0  0  0  0  0  0  0  0  0
    4.2690   -6.1941    0.0000 C   0  0  2  0  0  0  0  0  0  0  0  0
    3.4030   -6.6941    0.0000 C   0  0  1  0  0  0  0  0  0  0  0  0
    3.4030   -7.6941    0.0000 C   0  0  2  0  0  0  0  0  0  0  0  0
    4.2690   -8.1941    0.0000 C   0  0  1  0  0  0  0  0  0  0  0  0
    5.1350   -7.6941    0.0000 C   0  0  0  0  0  0  0  0  0  0  0  0
   11.1295    2.0176    0.0000 H   0  0  0  0  0  0  0  0  0  0  0  0
    8.7482    6.6023    0.0000 H   0  0  0  0  0  0  0  0  0  0  0  0
   11.8902    3.9037    0.0000 H   0  0  0  0  0  0  0  0  0  0  0  0
   11.4804    4.5888    0.0000 H   0  0  0  0  0  0  0  0  0  0  0  0
   11.4772    5.4319    0.0000 H   0  0  0  0  0  0  0  0  0  0  0  0
   11.8816    6.1202    0.0000 H   0  0  0  0  0  0  0  0  0  0  0  0
   11.5060    2.3800    0.0000 H   0  0  0  0  0  0  0  0  0  0  0  0
   11.8998    3.0743    0.0000 H   0  0  0  0  0  0  0  0  0  0  0  0
   11.8848    6.9496    0.0000 H   0  0  0  0  0  0  0  0  0  0  0  0
   11.4857    7.6409    0.0000 H   0  0  0  0  0  0  0  0  0  0  0  0
    8.3379    3.0230    0.0000 H   0  0  0  0  0  0  0  0  0  0  0  0
    7.9281    2.3379    0.0000 H   0  0  0  0  0  0  0  0  0  0  0  0
    7.9076    7.6554    0.0000 H   0  0  0  0  0  0  0  0  0  0  0  0
    8.3226    6.9735    0.0000 H   0  0  0  0  0  0  0  0  0  0  0  0
   10.0027    0.4969    0.0000 H   0  0  0  0  0  0  0  0  0  0  0  0
   10.9849    8.5519    0.0000 H   0  0  0  0  0  0  0  0  0  0  0  0
   10.5858    9.2433    0.0000 H   0  0  0  0  0  0  0  0  0  0  0  0
   11.4603    4.0734    0.0000 H   0  0  0  0  0  0  0  0  0  0  0  0
   11.9605    4.7936    0.0000 H   0  0  0  0  0  0  0  0  0  0  0  0
   11.2403    5.2937    0.0000 H   0  0  0  0  0  0  0  0  0  0  0  0
    7.9180    1.4651    0.0000 H   0  0  0  0  0  0  0  0  0  0  0  0
    8.3118    0.7707    0.0000 H   0  0  0  0  0  0  0  0  0  0  0  0
   11.2425    4.7252    0.0000 H   0  0  0  0  0  0  0  0  0  0  0  0
   11.9588    5.2309    0.0000 H   0  0  0  0  0  0  0  0  0  0  0  0
   11.4531    5.9472    0.0000 H   0  0  0  0  0  0  0  0  0  0  0  0
    8.0984    4.1873    0.0000 H   0  0  0  0  0  0  0  0  0  0  0  0
    8.9380    4.0003    0.0000 H   0  0  0  0  0  0  0  0  0  0  0  0
    8.0902    3.7766    0.0000 H   0  0  0  0  0  0  0  0  0  0  0  0
    8.3139    2.9288    0.0000 H   0  0  0  0  0  0  0  0  0  0  0  0
    8.0922    5.8073    0.0000 H   0  0  0  0  0  0  0  0  0  0  0  0
    9.8282    9.6767    0.0000 H   0  0  0  0  0  0  0  0  0  0  0  0
    9.0300    9.6706    0.0000 H   0  0  0  0  0  0  0  0  0  0  0  0
   11.4493    7.5052    0.0000 H   0  0  0  0  0  0  0  0  0  0  0  0
   11.8398    8.2001    0.0000 H   0  0  0  0  0  0  0  0  0  0  0  0
   11.9836    1.5762    0.0000 H   0  0  0  0  0  0  0  0  0  0  0  0
   11.2903    1.9694    0.0000 H   0  0  0  0  0  0  0  0  0  0  0  0
   10.3748    0.1757    0.0000 H   0  0  0  0  0  0  0  0  0  0  0  0
   11.2235   -0.0447    0.0000 H   0  0  0  0  0  0  0  0  0  0  0  0
   11.4439    0.8040    0.0000 H   0  0  0  0  0  0  0  0  0  0  0  0
    8.5183    9.8224    0.0000 H   0  0  0  0  0  0  0  0  0  0  0  0
    7.6680   10.0362    0.0000 H   0  0  0  0  0  0  0  0  0  0  0  0
    7.4541    9.1859    0.0000 H   0  0  0  0  0  0  0  0  0  0  0  0
    7.4900    9.2504    0.0000 H   0  0  0  0  0  0  0  0  0  0  0  0
    6.8797    8.6209    0.0000 H   0  0  0  0  0  0  0  0  0  0  0  0
    7.5092    8.0106    0.0000 H   0  0  0  0  0  0  0  0  0  0  0  0
   11.7523    9.4015    0.0000 H   0  0  0  0  0  0  0  0  0  0  0  0
    8.5991   -0.0741    0.0000 H   0  0  0  0  0  0  0  0  0  0  0  0
   12.5293    0.5023    0.0000 H   0  0  0  0  0  0  0  0  0  0  0  0
    8.5991   -2.3141    0.0000 H   0  0  0  0  0  0  0  0  0  0  0  0
    7.1962   -2.5041    0.0000 H   0  0  0  0  0  0  0  0  0  0  0  0
    6.8671   -0.0741    0.0000 H   0  0  0  0  0  0  0  0  0  0  0  0
    6.8671   -2.3141    0.0000 H   0  0  0  0  0  0  0  0  0  0  0  0
    9.4651   -2.8141    0.0000 H   0  0  0  0  0  0  0  0  0  0  0  0
    6.3110    0.3428    0.0000 H   0  0  0  0  0  0  0  0  0  0  0  0
    5.4641    0.1159    0.0000 H   0  0  0  0  0  0  0  0  0  0  0  0
    5.6910   -0.7311    0.0000 H   0  0  0  0  0  0  0  0  0  0  0  0
    5.4641   -1.8841    0.0000 H   0  0  0  0  0  0  0  0  0  0  0  0
    7.4040   -4.0041    0.0000 H   0  0  0  0  0  0  0  0  0  0  0  0
    6.8671   -5.3141    0.0000 H   0  0  0  0  0  0  0  0  0  0  0  0
    5.4641   -5.5041    0.0000 H   0  0  0  0  0  0  0  0  0  0  0  0
    5.1350   -3.0741    0.0000 H   0  0  0  0  0  0  0  0  0  0  0  0
    5.1350   -5.3141    0.0000 H   0  0  0  0  0  0  0  0  0  0  0  0
    8.2700   -4.8841    0.0000 H   0  0  0  0  0  0  0  0  0  0  0  0
    4.6675   -2.7192    0.0000 H   0  0  0  0  0  0  0  0  0  0  0  0
    3.8705   -2.7192    0.0000 H   0  0  0  0  0  0  0  0  0  0  0  0
    6.5380   -6.5041    0.0000 H   0  0  0  0  0  0  0  0  0  0  0  0
    3.7320   -5.8841    0.0000 H   0  0  0  0  0  0  0  0  0  0  0  0
    3.4030   -6.0741    0.0000 H   0  0  0  0  0  0  0  0  0  0  0  0
    2.8660   -3.3841    0.0000 H   0  0  0  0  0  0  0  0  0  0  0  0
    3.4030   -8.3141    0.0000 H   0  0  0  0  0  0  0  0  0  0  0  0
    4.8059   -8.5041    0.0000 H   0  0  0  0  0  0  0  0  0  0  0  0
    5.3471   -8.2767    0.0000 H   0  0  0  0  0  0  0  0  0  0  0  0
    5.7456   -7.5865    0.0000 H   0  0  0  0  0  0  0  0  0  0  0  0
    2.0000   -6.5041    0.0000 H   0  0  0  0  0  0  0  0  0  0  0  0
    2.5369   -8.8141    0.0000 H   0  0  0  0  0  0  0  0  0  0  0  0
    4.8059   -9.5041    0.0000 H   0  0  0  0  0  0  0  0  0  0  0  0
 32  1  1  1  0  0  0
 47  1  1  1  0  0  0
  2 42  1  0  0  0  0
  2109  1  0  0  0  0
  3 43  1  0  0  0  0
  3111  1  0  0  0  0
  4 47  1  0  0  0  0
  4 50  1  0  0  0  0
 48  5  1  6  0  0  0
  5116  1  0  0  0  0
 49  6  1  1  0  0  0
 53  6  1  1  0  0  0
 51  7  1  1  0  0  0
  7120  1  0  0  0  0
  8 53  1  0  0  0  0
  8 56  1  0  0  0  0
 54  9  1  6  0  0  0
  9126  1  0  0  0  0
 55 10  1  1  0  0  0
 10129  1  0  0  0  0
 57 11  1  6  0  0  0
 59 11  1  6  0  0  0
 12 58  1  0  0  0  0
 12132  1  0  0  0  0
 13 59  1  0  0  0  0
 13 63  1  0  0  0  0
 60 14  1  1  0  0  0
 14137  1  0  0  0  0
 61 15  1  6  0  0  0
 15138  1  0  0  0  0
 62 16  1  1  0  0  0
 16139  1  0  0  0  0
 17 18  1  0  0  0  0
 17 21  1  0  0  0  0
 17 25  1  0  0  0  0
 17 34  1  1  0  0  0
 18 24  1  0  0  0  0
 18 27  1  0  0  0  0
 18 37  1  6  0  0  0
 19 20  1  0  0  0  0
 19 21  1  0  0  0  0
 19 30  1  0  0  0  0
 19 39  1  1  0  0  0
 20 26  1  0  0  0  0
 20 28  1  0  0  0  0
 20 64  1  6  0  0  0
 21 38  2  0  0  0  0
 22 23  1  0  0  0  0
 22 29  1  0  0  0  0
 22 33  1  0  0  0  0
 22 42  1  1  0  0  0
 23 24  1  0  0  0  0
 23 31  1  0  0  0  0
 23 65  1  1  0  0  0
 24 40  2  0  0  0  0
 25 28  1  0  0  0  0
 25 66  1  0  0  0  0
 25 67  1  0  0  0  0
 26 32  1  0  0  0  0
 26 43  1  0  0  0  0
 26 44  1  1  0  0  0
 27 29  1  0  0  0  0
 27 68  1  0  0  0  0
 27 69  1  0  0  0  0
 28 70  1  0  0  0  0
 28 71  1  0  0  0  0
 29 72  1  0  0  0  0
 29 73  1  0  0  0  0
 30 36  1  0  0  0  0
 30 74  1  0  0  0  0
 30 75  1  0  0  0  0
 31 35  1  0  0  0  0
 31 76  1  0  0  0  0
 31 77  1  0  0  0  0
 32 36  1  0  0  0  0
 32 78  1  0  0  0  0
 33 41  1  0  0  0  0
 33 79  1  0  0  0  0
 33 80  1  0  0  0  0
 34 81  1  0  0  0  0
 34 82  1  0  0  0  0
 34 83  1  0  0  0  0
 35 41  1  0  0  0  0
 35 45  1  0  0  0  0
 35 46  1  0  0  0  0
 36 84  1  0  0  0  0
 36 85  1  0  0  0  0
 37 86  1  0  0  0  0
 37 87  1  0  0  0  0
 37 88  1  0  0  0  0
 38 40  1  0  0  0  0
 38 89  1  0  0  0  0
 39 90  1  0  0  0  0
 39 91  1  0  0  0  0
 39 92  1  0  0  0  0
 40 93  1  0  0  0  0
 41 94  1  0  0  0  0
 41 95  1  0  0  0  0
 42 96  1  0  0  0  0
 42 97  1  0  0  0  0
 43 98  1  0  0  0  0
 43 99  1  0  0  0  0
 44100  1  0  0  0  0
 44101  1  0  0  0  0
 44102  1  0  0  0  0
 45103  1  0  0  0  0
 45104  1  0  0  0  0
 45105  1  0  0  0  0
 46106  1  0  0  0  0
 46107  1  0  0  0  0
 46108  1  0  0  0  0
 47 48  1  0  0  0  0
 47110  1  0  0  0  0
 48 49  1  0  0  0  0
 48112  1  0  0  0  0
 49 51  1  0  0  0  0
 49113  1  0  0  0  0
 50 51  1  0  0  0  0
 50 52  1  1  0  0  0
 50114  1  0  0  0  0
 51115  1  0  0  0  0
 52117  1  0  0  0  0
 52118  1  0  0  0  0
 52119  1  0  0  0  0
 53 54  1  0  0  0  0
 53121  1  0  0  0  0
 54 55  1  0  0  0  0
 54122  1  0  0  0  0
 55 57  1  0  0  0  0
 55123  1  0  0  0  0
 56 57  1  0  0  0  0
 56 58  1  1  0  0  0
 56124  1  0  0  0  0
 57125  1  0  0  0  0
 58127  1  0  0  0  0
 58128  1  0  0  0  0
 59 60  1  0  0  0  0
 59130  1  0  0  0  0
 60 61  1  0  0  0  0
 60131  1  0  0  0  0
 61 62  1  0  0  0  0
 61133  1  0  0  0  0
 62 63  1  0  0  0  0
 62134  1  0  0  0  0
 63135  1  0  0  0  0
 63136  1  0  0  0  0
M  END
> <PUBCHEM_COMPOUND_CID>
44566641

> <PUBCHEM_COMPOUND_CANONICALIZED>
1

> <PUBCHEM_CACTVS_COMPLEXITY>
1730

> <PUBCHEM_CACTVS_HBOND_ACCEPTOR>
16

> <PUBCHEM_CACTVS_HBOND_DONOR>
10

> <PUBCHEM_CACTVS_ROTATABLE_BOND>
9

> <PUBCHEM_CACTVS_SUBSKEYS>
AAADcfB8PgAAAAAAAAAAAAAAAAAAAAAAAAA0aNGCAAAAAADAAAAAGgAACAAADxSwgAMCCAAABgCAAiBCAAAAAAAgAAAACAAAAAgZEAIAAQAiQAAFgAAPgAPA4PwPgAAAAAAAAADAAAYAADAAAAAAAAAAAA==

> <PUBCHEM_IUPAC_OPENEYE_NAME>
(2S,3R,4S,5R)-2-[(2R,3S,4R,5R,6S)-6-[(2R,3R,4S,5S,6R)-2-[[(3S,4R,4aR,6aS,6bR,8aS,12aS,14bS)-4,8a-bis(hydroxymethyl)-4,6a,6b,11,11,14b-hexamethyl-1,2,3,4a,5,6,7,8,9,10,12,12a-dodecahydropicen-3-yl]oxy]-3,5-dihydroxy-6-methyl-tetrahydropyran-4-yl]oxy-4,5-dihydroxy-2-(hydroxymethyl)tetrahydropyran-3-yl]oxytetrahydropyran-3,4,5-triol

> <PUBCHEM_IUPAC_CAS_NAME>
(2S,3R,4S,5R)-2-[[(2R,3S,4R,5R,6S)-6-[[(2R,3R,4S,5S,6R)-2-[[(3S,4R,4aR,6aS,6bR,8aS,12aS,14bS)-4,8a-bis(hydroxymethyl)-4,6a,6b,11,11,14b-hexamethyl-1,2,3,4a,5,6,7,8,9,10,12,12a-dodecahydropicen-3-yl]oxy]-3,5-dihydroxy-6-methyl-4-oxanyl]oxy]-4,5-dihydroxy-2-(hydroxymethyl)-3-oxanyl]oxy]oxane-3,4,5-triol

> <PUBCHEM_IUPAC_NAME_MARKUP>
(2<I>S</I>,3<I>R</I>,4<I>S</I>,5<I>R</I>)-2-[(2<I>R</I>,3<I>S</I>,4<I>R</I>,5<I>R</I>,6<I>S</I>)-6-[(2<I>R</I>,3<I>R</I>,4<I>S</I>,5<I>S</I>,6<I>R</I>)-2-[[(3<I>S</I>,4<I>R</I>,4<I>a</I><I>R</I>,6<I>a</I><I>S</I>,6<I>b</I><I>R</I>,8<I>a</I><I>S</I>,12<I>a</I><I>S</I>,14<I>b</I><I>S</I>)-4,8<I>a</I>-bis(hydroxymethyl)-4,6<I>a</I>,6<I>b</I>,11,11,14<I>b</I>-hexamethyl-1,2,3,4<I>a</I>,5,6,7,8,9,10,12,12<I>a</I>-dodecahydropicen-3-yl]oxy]-3,5-dihydroxy-6-methyloxan-4-yl]oxy-4,5-dihydroxy-2-(hydroxymethyl)oxan-3-yl]oxyoxane-3,4,5-triol

> <PUBCHEM_IUPAC_NAME>
(2S,3R,4S,5R)-2-[(2R,3S,4R,5R,6S)-6-[(2R,3R,4S,5S,6R)-2-[[(3S,4R,4aR,6aS,6bR,8aS,12aS,14bS)-4,8a-bis(hydroxymethyl)-4,6a,6b,11,11,14b-hexamethyl-1,2,3,4a,5,6,7,8,9,10,12,12a-dodecahydropicen-3-yl]oxy]-3,5-dihydroxy-6-methyloxan-4-yl]oxy-4,5-dihydroxy-2-(hydroxymethyl)oxan-3-yl]oxyoxane-3,4,5-triol

> <PUBCHEM_IUPAC_SYSTEMATIC_NAME>
(2S,3R,4S,5R)-2-[(2R,3S,4R,5R,6S)-6-[(2R,3R,4S,5S,6R)-2-[[(3S,4R,4aR,6aS,6bR,8aS,12aS,14bS)-4,8a-bis(hydroxymethyl)-4,6a,6b,11,11,14b-hexamethyl-1,2,3,4a,5,6,7,8,9,10,12,12a-dodecahydropicen-3-yl]oxy]-6-methyl-3,5-bis(oxidanyl)oxan-4-yl]oxy-2-(hydroxymethyl)-4,5-bis(oxidanyl)oxan-3-yl]oxyoxane-3,4,5-triol

> <PUBCHEM_IUPAC_TRADITIONAL_NAME>
(2S,3R,4S,5R)-2-[(2R,3S,4R,5R,6S)-6-[(2R,3R,4S,5S,6R)-2-[[(3S,4R,4aR,6aS,6bR,8aS,12aS,14bS)-4,6a,6b,11,11,14b-hexamethyl-4,8a-dimethylol-1,2,3,4a,5,6,7,8,9,10,12,12a-dodecahydropicen-3-yl]oxy]-3,5-dihydroxy-6-methyl-tetrahydropyran-4-yl]oxy-4,5-dihydroxy-2-methylol-tetrahydropyran-3-yl]oxytetrahydropyran-3,4,5-triol

> <PUBCHEM_IUPAC_INCHI>
InChI=1S/C47H76O16/c1-23-31(52)38(63-40-35(56)33(54)37(27(19-48)60-40)62-39-34(55)32(53)26(51)20-58-39)36(57)41(59-23)61-30-11-12-43(4)28(44(30,5)21-49)10-13-46(7)29(43)9-8-24-25-18-42(2,3)14-16-47(25,22-50)17-15-45(24,46)6/h8-9,23,25-28,30-41,48-57H,10-22H2,1-7H3/t23-,25+,26-,27-,28-,30+,31+,32+,33-,34-,35-,36-,37-,38+,39+,40+,41+,43+,44+,45-,46-,47-/m1/s1

> <PUBCHEM_IUPAC_INCHIKEY>
NBOLTJBFBQWADJ-IQWBYJDBSA-N

> <PUBCHEM_XLOGP3_AA>
1.3

> <PUBCHEM_EXACT_MASS>
896.513336

> <PUBCHEM_MOLECULAR_FORMULA>
C47H76O16

> <PUBCHEM_MOLECULAR_WEIGHT>
897.1

> <PUBCHEM_OPENEYE_CAN_SMILES>
CC1C(C(C(C(O1)OC2CCC3(C(C2(C)CO)CCC4(C3=CC=C5C4(CCC6(C5CC(CC6)(C)C)CO)C)C)C)O)OC7C(C(C(C(O7)CO)OC8C(C(C(CO8)O)O)O)O)O)O

> <PUBCHEM_OPENEYE_ISO_SMILES>
C[C@@H]1[C@@H]([C@@H]([C@H]([C@@H](O1)O[C@H]2CC[C@]3([C@H]([C@]2(C)CO)CC[C@@]4(C3=CC=C5[C@]4(CC[C@@]6([C@H]5CC(CC6)(C)C)CO)C)C)C)O)O[C@H]7[C@@H]([C@H]([C@@H]([C@H](O7)CO)O[C@H]8[C@@H]([C@H]([C@@H](CO8)O)O)O)O)O)O

> <PUBCHEM_CACTVS_TPSA>
258

> <PUBCHEM_MONOISOTOPIC_WEIGHT>
896.513336

> <PUBCHEM_TOTAL_CHARGE>
0

> <PUBCHEM_HEAVY_ATOM_COUNT>
63

> <PUBCHEM_ATOM_DEF_STEREO_COUNT>
22

> <PUBCHEM_ATOM_UDEF_STEREO_COUNT>
0

> <PUBCHEM_BOND_DEF_STEREO_COUNT>
0

> <PUBCHEM_BOND_UDEF_STEREO_COUNT>
0

> <PUBCHEM_ISOTOPIC_ATOM_COUNT>
0

> <PUBCHEM_COMPONENT_COUNT>
1

> <PUBCHEM_CACTVS_TAUTO_COUNT>
-1

> <PUBCHEM_COORDINATE_TYPE>
1
5
255

> <PUBCHEM_BONDANNOTATIONS>
32  1  5
47  1  5
55  10  5
57  11  6
59  11  6
60  14  5
61  15  6
62  16  5
17  34  5
18  37  6
19  39  5
20  64  6
22  42  5
23  65  5
26  44  5
48  5  6
50  52  5
56  58  5
49  6  5
53  6  5
51  7  5
54  9  6

$$$$
