44257901
  -OEChem-09182005302D

 94 99  0     1  0  0  0  0  0999 V2000
   10.3312   -3.8696    0.0000 O   0  0  0  0  0  0  0  0  0  0  0  0
    8.5991   -1.8696    0.0000 O   0  0  0  0  0  0  0  0  0  0  0  0
   11.1972   -2.3696    0.0000 O   0  0  0  0  0  0  0  0  0  0  0  0
    6.0010   -2.3696    0.0000 O   0  0  0  0  0  0  0  0  0  0  0  0
    8.5991   -4.8696    0.0000 O   0  0  0  0  0  0  0  0  0  0  0  0
    6.8671   -3.8696    0.0000 O   0  0  0  0  0  0  0  0  0  0  0  0
   10.3312   -1.8696    0.0000 O   0  0  0  0  0  0  0  0  0  0  0  0
    4.2690   -2.3696    0.0000 O   0  0  0  0  0  0  0  0  0  0  0  0
   12.0632   -4.8696    0.0000 O   0  0  0  0  0  0  0  0  0  0  0  0
   13.7953   -3.8696    0.0000 O   0  0  0  0  0  0  0  0  0  0  0  0
   13.7953   -1.8696    0.0000 O   0  0  0  0  0  0  0  0  0  0  0  0
    6.0010   -0.3696    0.0000 O   0  0  0  0  0  0  0  0  0  0  0  0
    4.2690    0.6304    0.0000 O   0  0  0  0  0  0  0  0  0  0  0  0
    2.5369   -0.3696    0.0000 O   0  0  0  0  0  0  0  0  0  0  0  0
   12.0871    1.1930    0.0000 O   0  0  0  0  0  0  0  0  0  0  0  0
    8.5849    1.2096    0.0000 O   0  0  0  0  0  0  0  0  0  0  0  0
    9.4948    2.7030    0.0000 O   0  0  0  0  0  0  0  0  0  0  0  0
   15.5628    4.1796    0.0000 O   0  0  0  0  0  0  0  0  0  0  0  0
    9.4651   -3.3696    0.0000 C   0  0  3  0  0  0  0  0  0  0  0  0
    8.5991   -3.8696    0.0000 C   0  0  2  0  0  0  0  0  0  0  0  0
    7.7331   -3.3696    0.0000 C   0  0  1  0  0  0  0  0  0  0  0  0
    7.7331   -2.3696    0.0000 C   0  0  3  0  0  0  0  0  0  0  0  0
    9.4651   -2.3696    0.0000 C   0  0  1  0  0  0  0  0  0  0  0  0
   11.1972   -3.3696    0.0000 C   0  0  2  0  0  0  0  0  0  0  0  0
   12.0632   -3.8696    0.0000 C   0  0  2  0  0  0  0  0  0  0  0  0
   12.9292   -3.3696    0.0000 C   0  0  3  0  0  0  0  0  0  0  0  0
    6.8671   -1.8696    0.0000 C   0  0  0  0  0  0  0  0  0  0  0  0
   12.9292   -2.3696    0.0000 C   0  0  2  0  0  0  0  0  0  0  0  0
   12.0632   -1.8696    0.0000 C   0  0  3  0  0  0  0  0  0  0  0  0
    5.1350   -1.8696    0.0000 C   0  0  2  0  0  0  0  0  0  0  0  0
    5.1350   -0.8696    0.0000 C   0  0  2  0  0  0  0  0  0  0  0  0
    4.2690   -0.3696    0.0000 C   0  0  3  0  0  0  0  0  0  0  0  0
    3.4030   -0.8696    0.0000 C   0  0  2  0  0  0  0  0  0  0  0  0
    3.4030   -1.8696    0.0000 C   0  0  3  0  0  0  0  0  0  0  0  0
   12.0632   -0.8696    0.0000 C   0  0  0  0  0  0  0  0  0  0  0  0
    2.5369   -2.3696    0.0000 C   0  0  0  0  0  0  0  0  0  0  0  0
   10.3312   -0.8696    0.0000 C   0  0  0  0  0  0  0  0  0  0  0  0
   11.2312   -0.3453    0.0000 C   0  0  0  0  0  0  0  0  0  0  0  0
    9.4311   -0.3453    0.0000 C   0  0  0  0  0  0  0  0  0  0  0  0
   11.2192    0.6963    0.0000 C   0  0  0  0  0  0  0  0  0  0  0  0
    9.4431    0.6963    0.0000 C   0  0  0  0  0  0  0  0  0  0  0  0
   10.3551    1.1996    0.0000 C   0  0  0  0  0  0  0  0  0  0  0  0
   10.3589    2.1996    0.0000 C   0  0  0  0  0  0  0  0  0  0  0  0
   12.0910    2.1929    0.0000 C   0  0  0  0  0  0  0  0  0  0  0  0
   11.2269    2.6963    0.0000 C   0  0  0  0  0  0  0  0  0  0  0  0
   12.9589    2.6896    0.0000 C   0  0  0  0  0  0  0  0  0  0  0  0
   12.9628    3.6896    0.0000 C   0  0  0  0  0  0  0  0  0  0  0  0
   13.8230    2.1863    0.0000 C   0  0  0  0  0  0  0  0  0  0  0  0
   13.8307    4.1862    0.0000 C   0  0  0  0  0  0  0  0  0  0  0  0
   14.6910    2.6829    0.0000 C   0  0  0  0  0  0  0  0  0  0  0  0
   14.6948    3.6829    0.0000 C   0  0  0  0  0  0  0  0  0  0  0  0
   15.5666    5.1796    0.0000 C   0  0  0  0  0  0  0  0  0  0  0  0
   10.0021   -3.0596    0.0000 H   0  0  0  0  0  0  0  0  0  0  0  0
    9.1360   -4.1796    0.0000 H   0  0  0  0  0  0  0  0  0  0  0  0
    7.7331   -3.9896    0.0000 H   0  0  0  0  0  0  0  0  0  0  0  0
    7.7331   -1.7496    0.0000 H   0  0  0  0  0  0  0  0  0  0  0  0
    9.4651   -1.7496    0.0000 H   0  0  0  0  0  0  0  0  0  0  0  0
   11.1972   -3.9896    0.0000 H   0  0  0  0  0  0  0  0  0  0  0  0
   12.6002   -4.1796    0.0000 H   0  0  0  0  0  0  0  0  0  0  0  0
   13.4662   -3.0596    0.0000 H   0  0  0  0  0  0  0  0  0  0  0  0
    7.2656   -1.3946    0.0000 H   0  0  0  0  0  0  0  0  0  0  0  0
    6.4685   -1.3946    0.0000 H   0  0  0  0  0  0  0  0  0  0  0  0
   13.4662   -2.6796    0.0000 H   0  0  0  0  0  0  0  0  0  0  0  0
   11.5263   -1.5596    0.0000 H   0  0  0  0  0  0  0  0  0  0  0  0
    5.6720   -1.5596    0.0000 H   0  0  0  0  0  0  0  0  0  0  0  0
    5.1350   -0.2496    0.0000 H   0  0  0  0  0  0  0  0  0  0  0  0
    3.7320   -0.0596    0.0000 H   0  0  0  0  0  0  0  0  0  0  0  0
    3.4030   -0.2496    0.0000 H   0  0  0  0  0  0  0  0  0  0  0  0
    3.4030   -2.4896    0.0000 H   0  0  0  0  0  0  0  0  0  0  0  0
    8.0622   -5.1796    0.0000 H   0  0  0  0  0  0  0  0  0  0  0  0
    6.8671   -4.4896    0.0000 H   0  0  0  0  0  0  0  0  0  0  0  0
   12.6832   -0.8696    0.0000 H   0  0  0  0  0  0  0  0  0  0  0  0
   12.0632   -0.2496    0.0000 H   0  0  0  0  0  0  0  0  0  0  0  0
   11.4432   -0.8696    0.0000 H   0  0  0  0  0  0  0  0  0  0  0  0
   12.6002   -5.1796    0.0000 H   0  0  0  0  0  0  0  0  0  0  0  0
    2.2269   -1.8326    0.0000 H   0  0  0  0  0  0  0  0  0  0  0  0
    2.0000   -2.6796    0.0000 H   0  0  0  0  0  0  0  0  0  0  0  0
    2.8469   -2.9065    0.0000 H   0  0  0  0  0  0  0  0  0  0  0  0
   14.3322   -3.5596    0.0000 H   0  0  0  0  0  0  0  0  0  0  0  0
   14.3322   -2.1796    0.0000 H   0  0  0  0  0  0  0  0  0  0  0  0
    6.0010    0.2504    0.0000 H   0  0  0  0  0  0  0  0  0  0  0  0
    3.7320    0.9404    0.0000 H   0  0  0  0  0  0  0  0  0  0  0  0
    2.0000   -0.6796    0.0000 H   0  0  0  0  0  0  0  0  0  0  0  0
   11.7705   -0.6511    0.0000 H   0  0  0  0  0  0  0  0  0  0  0  0
    8.8918   -0.6511    0.0000 H   0  0  0  0  0  0  0  0  0  0  0  0
   11.2293    3.3163    0.0000 H   0  0  0  0  0  0  0  0  0  0  0  0
    8.0433    0.9079    0.0000 H   0  0  0  0  0  0  0  0  0  0  0  0
   12.4270    4.0017    0.0000 H   0  0  0  0  0  0  0  0  0  0  0  0
   13.8206    1.5663    0.0000 H   0  0  0  0  0  0  0  0  0  0  0  0
   13.8331    4.8062    0.0000 H   0  0  0  0  0  0  0  0  0  0  0  0
   15.2267    2.3708    0.0000 H   0  0  0  0  0  0  0  0  0  0  0  0
   16.1866    5.1772    0.0000 H   0  0  0  0  0  0  0  0  0  0  0  0
   15.5690    5.7996    0.0000 H   0  0  0  0  0  0  0  0  0  0  0  0
   14.9466    5.1819    0.0000 H   0  0  0  0  0  0  0  0  0  0  0  0
  1 19  1  0  0  0  0
 24  1  1  6  0  0  0
  2 22  1  0  0  0  0
  2 23  1  0  0  0  0
  3 24  1  0  0  0  0
  3 29  1  0  0  0  0
  4 27  1  0  0  0  0
 30  4  1  6  0  0  0
 20  5  1  1  0  0  0
  5 70  1  0  0  0  0
 21  6  1  6  0  0  0
  6 71  1  0  0  0  0
 23  7  1  1  0  0  0
  7 37  1  0  0  0  0
  8 30  1  0  0  0  0
  8 34  1  0  0  0  0
 25  9  1  6  0  0  0
  9 75  1  0  0  0  0
 10 26  1  0  0  0  0
 10 79  1  0  0  0  0
 28 11  1  6  0  0  0
 11 80  1  0  0  0  0
 31 12  1  6  0  0  0
 12 81  1  0  0  0  0
 13 32  1  0  0  0  0
 13 82  1  0  0  0  0
 33 14  1  6  0  0  0
 14 83  1  0  0  0  0
 15 40  1  0  0  0  0
 15 44  1  0  0  0  0
 16 41  1  0  0  0  0
 16 87  1  0  0  0  0
 17 43  2  0  0  0  0
 18 51  1  0  0  0  0
 18 52  1  0  0  0  0
 19 20  1  0  0  0  0
 19 23  1  0  0  0  0
 19 53  1  0  0  0  0
 20 21  1  0  0  0  0
 20 54  1  0  0  0  0
 21 22  1  0  0  0  0
 21 55  1  0  0  0  0
 22 27  1  0  0  0  0
 22 56  1  0  0  0  0
 23 57  1  0  0  0  0
 24 25  1  0  0  0  0
 24 58  1  0  0  0  0
 25 26  1  0  0  0  0
 25 59  1  0  0  0  0
 26 28  1  0  0  0  0
 26 60  1  0  0  0  0
 27 61  1  0  0  0  0
 27 62  1  0  0  0  0
 28 29  1  0  0  0  0
 28 63  1  0  0  0  0
 29 35  1  0  0  0  0
 29 64  1  0  0  0  0
 30 31  1  0  0  0  0
 30 65  1  0  0  0  0
 31 32  1  0  0  0  0
 31 66  1  0  0  0  0
 32 33  1  0  0  0  0
 32 67  1  0  0  0  0
 33 34  1  0  0  0  0
 33 68  1  0  0  0  0
 34 36  1  0  0  0  0
 34 69  1  0  0  0  0
 35 72  1  0  0  0  0
 35 73  1  0  0  0  0
 35 74  1  0  0  0  0
 36 76  1  0  0  0  0
 36 77  1  0  0  0  0
 36 78  1  0  0  0  0
 37 38  1  0  0  0  0
 37 39  2  0  0  0  0
 38 40  2  0  0  0  0
 38 84  1  0  0  0  0
 39 41  1  0  0  0  0
 39 85  1  0  0  0  0
 40 42  1  0  0  0  0
 41 42  2  0  0  0  0
 42 43  1  0  0  0  0
 43 45  1  0  0  0  0
 44 45  2  0  0  0  0
 44 46  1  0  0  0  0
 45 86  1  0  0  0  0
 46 47  2  0  0  0  0
 46 48  1  0  0  0  0
 47 49  1  0  0  0  0
 47 88  1  0  0  0  0
 48 50  2  0  0  0  0
 48 89  1  0  0  0  0
 49 51  2  0  0  0  0
 49 90  1  0  0  0  0
 50 51  1  0  0  0  0
 50 91  1  0  0  0  0
 52 92  1  0  0  0  0
 52 93  1  0  0  0  0
 52 94  1  0  0  0  0
M  END
> <PUBCHEM_COMPOUND_CID>
44257901

> <PUBCHEM_COMPOUND_CANONICALIZED>
1

> <PUBCHEM_CACTVS_COMPLEXITY>
1230

> <PUBCHEM_CACTVS_HBOND_ACCEPTOR>
18

> <PUBCHEM_CACTVS_HBOND_DONOR>
9

> <PUBCHEM_CACTVS_ROTATABLE_BOND>
9

> <PUBCHEM_CACTVS_SUBSKEYS>
AAADcfB8PgAAAAAAAAAAAAAAAAAAAAAAAAA0aJECAAAAAACBQAAAGgAACAAADBSwmAMyDoAABgCIAqBSAAACCAAkIAAIiAEGCMgdNzaGNRqieWCl4BUPuQfI7KzOIAAACAAIAABAAAAQABAAAAAAAAAAAA==

> <PUBCHEM_IUPAC_OPENEYE_NAME>
7-[(2S,4S,5S)-4,5-dihydroxy-3-[(2R,3S,5R)-3,4,5-trihydroxy-6-methyl-tetrahydropyran-2-yl]oxy-6-[[(2R,3S,5R)-3,4,5-trihydroxy-6-methyl-tetrahydropyran-2-yl]oxymethyl]tetrahydropyran-2-yl]oxy-5-hydroxy-2-(4-methoxyphenyl)chromen-4-one

> <PUBCHEM_IUPAC_CAS_NAME>
7-[[(2S,4S,5S)-4,5-dihydroxy-3-[[(2R,3S,5R)-3,4,5-trihydroxy-6-methyl-2-oxanyl]oxy]-6-[[(2R,3S,5R)-3,4,5-trihydroxy-6-methyl-2-oxanyl]oxymethyl]-2-oxanyl]oxy]-5-hydroxy-2-(4-methoxyphenyl)-1-benzopyran-4-one

> <PUBCHEM_IUPAC_NAME_MARKUP>
7-[(2<I>S</I>,4<I>S</I>,5<I>S</I>)-4,5-dihydroxy-3-[(2<I>R</I>,3<I>S</I>,5<I>R</I>)-3,4,5-trihydroxy-6-methyloxan-2-yl]oxy-6-[[(2<I>R</I>,3<I>S</I>,5<I>R</I>)-3,4,5-trihydroxy-6-methyloxan-2-yl]oxymethyl]oxan-2-yl]oxy-5-hydroxy-2-(4-methoxyphenyl)chromen-4-one

> <PUBCHEM_IUPAC_NAME>
7-[(2S,4S,5S)-4,5-dihydroxy-3-[(2R,3S,5R)-3,4,5-trihydroxy-6-methyloxan-2-yl]oxy-6-[[(2R,3S,5R)-3,4,5-trihydroxy-6-methyloxan-2-yl]oxymethyl]oxan-2-yl]oxy-5-hydroxy-2-(4-methoxyphenyl)chromen-4-one

> <PUBCHEM_IUPAC_SYSTEMATIC_NAME>
2-(4-methoxyphenyl)-7-[(2S,4S,5S)-3-[(2R,3S,5R)-6-methyl-3,4,5-tris(oxidanyl)oxan-2-yl]oxy-6-[[(2R,3S,5R)-6-methyl-3,4,5-tris(oxidanyl)oxan-2-yl]oxymethyl]-4,5-bis(oxidanyl)oxan-2-yl]oxy-5-oxidanyl-chromen-4-one

> <PUBCHEM_IUPAC_TRADITIONAL_NAME>
7-[(2S,4S,5S)-4,5-dihydroxy-3-[(2R,3S,5R)-3,4,5-trihydroxy-6-methyl-tetrahydropyran-2-yl]oxy-6-[[(2R,3S,5R)-3,4,5-trihydroxy-6-methyl-tetrahydropyran-2-yl]oxymethyl]tetrahydropyran-2-yl]oxy-5-hydroxy-2-(4-methoxyphenyl)chromone

> <PUBCHEM_IUPAC_INCHI>
InChI=1S/C34H42O18/c1-12-23(37)26(40)29(43)32(47-12)46-11-21-25(39)28(42)31(52-33-30(44)27(41)24(38)13(2)48-33)34(51-21)49-16-8-17(35)22-18(36)10-19(50-20(22)9-16)14-4-6-15(45-3)7-5-14/h4-10,12-13,21,23-35,37-44H,11H2,1-3H3/t12?,13?,21?,23-,24-,25+,26?,27?,28-,29-,30-,31?,32+,33-,34+/m0/s1

> <PUBCHEM_IUPAC_INCHIKEY>
XQQFUXJSLVWQSS-UOMQSTFGSA-N

> <PUBCHEM_XLOGP3_AA>
-1.6

> <PUBCHEM_EXACT_MASS>
738.237115

> <PUBCHEM_MOLECULAR_FORMULA>
C34H42O18

> <PUBCHEM_MOLECULAR_WEIGHT>
738.7

> <PUBCHEM_OPENEYE_CAN_SMILES>
CC1C(C(C(C(O1)OCC2C(C(C(C(O2)OC3=CC(=C4C(=C3)OC(=CC4=O)C5=CC=C(C=C5)OC)O)OC6C(C(C(C(O6)C)O)O)O)O)O)O)O)O

> <PUBCHEM_OPENEYE_ISO_SMILES>
CC1[C@@H](C([C@@H]([C@@H](O1)OCC2[C@H]([C@@H](C([C@@H](O2)OC3=CC(=C4C(=C3)OC(=CC4=O)C5=CC=C(C=C5)OC)O)O[C@H]6[C@H](C([C@H](C(O6)C)O)O)O)O)O)O)O)O

> <PUBCHEM_CACTVS_TPSA>
273

> <PUBCHEM_MONOISOTOPIC_WEIGHT>
738.237115

> <PUBCHEM_TOTAL_CHARGE>
0

> <PUBCHEM_HEAVY_ATOM_COUNT>
52

> <PUBCHEM_ATOM_DEF_STEREO_COUNT>
9

> <PUBCHEM_ATOM_UDEF_STEREO_COUNT>
6

> <PUBCHEM_BOND_DEF_STEREO_COUNT>
0

> <PUBCHEM_BOND_UDEF_STEREO_COUNT>
0

> <PUBCHEM_ISOTOPIC_ATOM_COUNT>
0

> <PUBCHEM_COMPONENT_COUNT>
1

> <PUBCHEM_CACTVS_TAUTO_COUNT>
-1

> <PUBCHEM_COORDINATE_TYPE>
1
5
255

> <PUBCHEM_BONDANNOTATIONS>
19  1  3
24  1  6
26  10  3
28  11  6
31  12  6
32  13  3
33  14  6
15  40  8
15  44  8
22  27  3
29  35  3
34  36  3
37  38  8
37  39  8
38  40  8
39  41  8
30  4  6
40  42  8
41  42  8
42  43  8
43  45  8
44  45  8
46  47  8
46  48  8
47  49  8
48  50  8
49  51  8
20  5  5
50  51  8
21  6  6
23  7  5
25  9  6

$$$$
