54586748
  -OEChem-09182005162D

169177  0     1  0  0  0  0  0999 V2000
   11.1602    3.9961    0.0000 O   0  0  0  0  0  0  0  0  0  0  0  0
    9.4651   -0.1941    0.0000 O   0  0  0  0  0  0  0  0  0  0  0  0
    7.0210    0.4975    0.0000 O   0  0  0  0  0  0  0  0  0  0  0  0
    7.7113    9.0853    0.0000 O   0  0  0  0  0  0  0  0  0  0  0  0
    7.7331   -0.1941    0.0000 O   0  0  0  0  0  0  0  0  0  0  0  0
    9.4651   -2.1941    0.0000 O   0  0  0  0  0  0  0  0  0  0  0  0
    7.7331   -3.1941    0.0000 O   0  0  0  0  0  0  0  0  0  0  0  0
    6.0010   -2.1941    0.0000 O   0  0  0  0  0  0  0  0  0  0  0  0
   10.3312   -0.6941    0.0000 O   0  0  0  0  0  0  0  0  0  0  0  0
    6.0010   -3.1941    0.0000 O   0  0  0  0  0  0  0  0  0  0  0  0
   11.1972   -3.1941    0.0000 O   0  0  0  0  0  0  0  0  0  0  0  0
    7.7331   -5.1941    0.0000 O   0  0  0  0  0  0  0  0  0  0  0  0
   12.9292   -2.1941    0.0000 O   0  0  0  0  0  0  0  0  0  0  0  0
   12.9292   -0.1941    0.0000 O   0  0  0  0  0  0  0  0  0  0  0  0
    6.0010   -6.1941    0.0000 O   0  0  0  0  0  0  0  0  0  0  0  0
    4.2690   -5.1941    0.0000 O   0  0  0  0  0  0  0  0  0  0  0  0
   12.0632    1.3059    0.0000 O   0  0  0  0  0  0  0  0  0  0  0  0
    3.4030   -3.6941    0.0000 O   0  0  0  0  0  0  0  0  0  0  0  0
    5.1350   -6.6941    0.0000 O   0  0  0  0  0  0  0  0  0  0  0  0
    2.5369   -6.1941    0.0000 O   0  0  0  0  0  0  0  0  0  0  0  0
    2.5369   -8.1941    0.0000 O   0  0  0  0  0  0  0  0  0  0  0  0
    4.2690   -9.1941    0.0000 O   0  0  0  0  0  0  0  0  0  0  0  0
    8.5641    4.5061    0.0000 C   0  0  2  0  0  0  0  0  0  0  0  0
    9.4282    4.0028    0.0000 C   0  0  1  0  0  0  0  0  0  0  0  0
    9.4402    2.9612    0.0000 C   0  0  2  0  0  0  0  0  0  0  0  0
    8.5679    5.5061    0.0000 C   0  0  1  0  0  0  0  0  0  0  0  0
    8.5402    2.4369    0.0000 C   0  0  2  0  0  0  0  0  0  0  0  0
    7.6521    4.0028    0.0000 C   0  0  0  0  0  0  0  0  0  0  0  0
    9.4359    6.0027    0.0000 C   0  0  0  0  0  0  0  0  0  0  0  0
    8.5276    1.3520    0.0000 C   0  0  1  0  0  0  0  0  0  0  0  0
    7.6401    2.9612    0.0000 C   0  0  0  0  0  0  0  0  0  0  0  0
    9.4560    7.0442    0.0000 C   0  0  1  0  0  0  0  0  0  0  0  0
   10.2961    4.4994    0.0000 C   0  0  1  0  0  0  0  0  0  0  0  0
    8.5600    7.5754    0.0000 C   0  0  1  0  0  0  0  0  0  0  0  0
    7.6599    6.0164    0.0000 C   0  0  0  0  0  0  0  0  0  0  0  0
   10.3901    2.4369    0.0000 C   0  0  0  0  0  0  0  0  0  0  0  0
    7.6559    7.0580    0.0000 C   0  0  0  0  0  0  0  0  0  0  0  0
    7.5800    4.6835    0.0000 C   0  0  0  0  0  0  0  0  0  0  0  0
    9.4651    0.8059    0.0000 C   0  0  2  0  0  0  0  0  0  0  0  0
   10.3000    5.4994    0.0000 C   0  0  0  0  0  0  0  0  0  0  0  0
   10.3043    3.4645    0.0000 C   0  0  0  0  0  0  0  0  0  0  0  0
   10.4027    1.3520    0.0000 C   0  0  0  0  0  0  0  0  0  0  0  0
    7.5825    5.3363    0.0000 C   0  0  0  0  0  0  0  0  0  0  0  0
   10.4099    7.5611    0.0000 C   0  0  0  0  0  0  0  0  0  0  0  0
    8.5558    8.6604    0.0000 C   0  0  0  0  0  0  0  0  0  0  0  0
   10.4308    8.6459    0.0000 C   0  0  0  0  0  0  0  0  0  0  0  0
    7.5276    1.3597    0.0000 C   0  0  0  0  0  0  0  0  0  0  0  0
    8.0209    0.4898    0.0000 C   0  0  0  0  0  0  0  0  0  0  0  0
    9.4975    9.1992    0.0000 C   0  0  0  0  0  0  0  0  0  0  0  0
    7.6998    8.0854    0.0000 C   0  0  0  0  0  0  0  0  0  0  0  0
   10.9441    9.5041    0.0000 C   0  0  0  0  0  0  0  0  0  0  0  0
   11.4307    8.6305    0.0000 C   0  0  0  0  0  0  0  0  0  0  0  0
    8.5991   -0.6941    0.0000 C   0  0  2  0  0  0  0  0  0  0  0  0
   12.0282    4.4927    0.0000 C   0  0  0  0  0  0  0  0  0  0  0  0
    8.5991   -1.6941    0.0000 C   0  0  1  0  0  0  0  0  0  0  0  0
    7.7331   -2.1941    0.0000 C   0  0  2  0  0  0  0  0  0  0  0  0
    6.8671   -0.6941    0.0000 C   0  0  1  0  0  0  0  0  0  0  0  0
    6.8671   -1.6941    0.0000 C   0  0  2  0  0  0  0  0  0  0  0  0
    6.0010   -0.1941    0.0000 C   0  0  0  0  0  0  0  0  0  0  0  0
   10.3312   -1.6941    0.0000 C   0  0  2  0  0  0  0  0  0  0  0  0
    6.8671   -3.6941    0.0000 C   0  0  2  0  0  0  0  0  0  0  0  0
   11.1972   -2.1941    0.0000 C   0  0  1  0  0  0  0  0  0  0  0  0
    6.8671   -4.6941    0.0000 C   0  0  1  0  0  0  0  0  0  0  0  0
   12.0632   -1.6941    0.0000 C   0  0  2  0  0  0  0  0  0  0  0  0
   11.1972   -0.1941    0.0000 C   0  0  1  0  0  0  0  0  0  0  0  0
   12.0632   -0.6941    0.0000 C   0  0  1  0  0  0  0  0  0  0  0  0
    6.0010   -5.1941    0.0000 C   0  0  2  0  0  0  0  0  0  0  0  0
    5.1350   -3.6941    0.0000 C   0  0  1  0  0  0  0  0  0  0  0  0
    5.1350   -4.6941    0.0000 C   0  0  1  0  0  0  0  0  0  0  0  0
   11.1972    0.8059    0.0000 C   0  0  0  0  0  0  0  0  0  0  0  0
    4.2690   -3.1941    0.0000 C   0  0  0  0  0  0  0  0  0  0  0  0
    4.2690   -6.1941    0.0000 C   0  0  2  0  0  0  0  0  0  0  0  0
    3.4030   -6.6941    0.0000 C   0  0  1  0  0  0  0  0  0  0  0  0
    3.4030   -7.6941    0.0000 C   0  0  1  0  0  0  0  0  0  0  0  0
    5.1350   -7.6941    0.0000 C   0  0  2  0  0  0  0  0  0  0  0  0
    4.2690   -8.1941    0.0000 C   0  0  2  0  0  0  0  0  0  0  0  0
    6.0010   -8.1941    0.0000 C   0  0  0  0  0  0  0  0  0  0  0  0
   10.1659    3.5806    0.0000 H   0  0  0  0  0  0  0  0  0  0  0  0
    7.8008    2.0176    0.0000 H   0  0  0  0  0  0  0  0  0  0  0  0
    7.4498    4.5888    0.0000 H   0  0  0  0  0  0  0  0  0  0  0  0
    7.0401    3.9037    0.0000 H   0  0  0  0  0  0  0  0  0  0  0  0
    7.0305    3.0743    0.0000 H   0  0  0  0  0  0  0  0  0  0  0  0
    7.4243    2.3800    0.0000 H   0  0  0  0  0  0  0  0  0  0  0  0
   10.1820    6.6023    0.0000 H   0  0  0  0  0  0  0  0  0  0  0  0
   10.8342    4.8073    0.0000 H   0  0  0  0  0  0  0  0  0  0  0  0
    7.0486    6.1202    0.0000 H   0  0  0  0  0  0  0  0  0  0  0  0
    7.4531    5.4319    0.0000 H   0  0  0  0  0  0  0  0  0  0  0  0
   11.0022    2.3379    0.0000 H   0  0  0  0  0  0  0  0  0  0  0  0
   10.5924    3.0230    0.0000 H   0  0  0  0  0  0  0  0  0  0  0  0
    7.4446    7.6409    0.0000 H   0  0  0  0  0  0  0  0  0  0  0  0
    7.0454    6.9496    0.0000 H   0  0  0  0  0  0  0  0  0  0  0  0
    7.6900    5.2937    0.0000 H   0  0  0  0  0  0  0  0  0  0  0  0
    6.9698    4.7936    0.0000 H   0  0  0  0  0  0  0  0  0  0  0  0
    7.4699    4.0734    0.0000 H   0  0  0  0  0  0  0  0  0  0  0  0
   10.0027    0.4969    0.0000 H   0  0  0  0  0  0  0  0  0  0  0  0
   10.8381    5.8073    0.0000 H   0  0  0  0  0  0  0  0  0  0  0  0
   10.6164    2.9288    0.0000 H   0  0  0  0  0  0  0  0  0  0  0  0
   10.8400    3.7766    0.0000 H   0  0  0  0  0  0  0  0  0  0  0  0
    9.9922    4.0003    0.0000 H   0  0  0  0  0  0  0  0  0  0  0  0
   10.6185    0.7707    0.0000 H   0  0  0  0  0  0  0  0  0  0  0  0
   11.0123    1.4651    0.0000 H   0  0  0  0  0  0  0  0  0  0  0  0
    7.4772    5.9473    0.0000 H   0  0  0  0  0  0  0  0  0  0  0  0
    6.9715    5.2310    0.0000 H   0  0  0  0  0  0  0  0  0  0  0  0
    7.6877    4.7253    0.0000 H   0  0  0  0  0  0  0  0  0  0  0  0
   10.6076    6.9735    0.0000 H   0  0  0  0  0  0  0  0  0  0  0  0
   11.0227    7.6554    0.0000 H   0  0  0  0  0  0  0  0  0  0  0  0
    8.3445    9.2433    0.0000 H   0  0  0  0  0  0  0  0  0  0  0  0
    7.9453    8.5519    0.0000 H   0  0  0  0  0  0  0  0  0  0  0  0
    7.6400    1.9694    0.0000 H   0  0  0  0  0  0  0  0  0  0  0  0
    6.9467    1.5762    0.0000 H   0  0  0  0  0  0  0  0  0  0  0  0
    7.4864    0.8040    0.0000 H   0  0  0  0  0  0  0  0  0  0  0  0
    7.7068   -0.0447    0.0000 H   0  0  0  0  0  0  0  0  0  0  0  0
    8.5555    0.1757    0.0000 H   0  0  0  0  0  0  0  0  0  0  0  0
    9.9003    9.6706    0.0000 H   0  0  0  0  0  0  0  0  0  0  0  0
    9.1020    9.6767    0.0000 H   0  0  0  0  0  0  0  0  0  0  0  0
    7.0905    8.2001    0.0000 H   0  0  0  0  0  0  0  0  0  0  0  0
    7.4810    7.5052    0.0000 H   0  0  0  0  0  0  0  0  0  0  0  0
   11.4762    9.1859    0.0000 H   0  0  0  0  0  0  0  0  0  0  0  0
   11.2623   10.0362    0.0000 H   0  0  0  0  0  0  0  0  0  0  0  0
   10.4120    9.8224    0.0000 H   0  0  0  0  0  0  0  0  0  0  0  0
   11.4211    8.0106    0.0000 H   0  0  0  0  0  0  0  0  0  0  0  0
   12.0506    8.6209    0.0000 H   0  0  0  0  0  0  0  0  0  0  0  0
   11.4402    9.2504    0.0000 H   0  0  0  0  0  0  0  0  0  0  0  0
    8.5991   -0.0741    0.0000 H   0  0  0  0  0  0  0  0  0  0  0  0
    6.4010    0.5023    0.0000 H   0  0  0  0  0  0  0  0  0  0  0  0
   12.3361    3.9546    0.0000 H   0  0  0  0  0  0  0  0  0  0  0  0
   12.5663    4.8007    0.0000 H   0  0  0  0  0  0  0  0  0  0  0  0
   11.7202    5.0309    0.0000 H   0  0  0  0  0  0  0  0  0  0  0  0
    7.1780    9.4015    0.0000 H   0  0  0  0  0  0  0  0  0  0  0  0
    8.5991   -2.3141    0.0000 H   0  0  0  0  0  0  0  0  0  0  0  0
    7.1962   -2.5041    0.0000 H   0  0  0  0  0  0  0  0  0  0  0  0
    6.8671   -0.0741    0.0000 H   0  0  0  0  0  0  0  0  0  0  0  0
    6.8671   -2.3141    0.0000 H   0  0  0  0  0  0  0  0  0  0  0  0
    6.3110    0.3428    0.0000 H   0  0  0  0  0  0  0  0  0  0  0  0
    5.4641    0.1159    0.0000 H   0  0  0  0  0  0  0  0  0  0  0  0
    5.6910   -0.7311    0.0000 H   0  0  0  0  0  0  0  0  0  0  0  0
   10.3312   -2.3141    0.0000 H   0  0  0  0  0  0  0  0  0  0  0  0
    5.4641   -1.8841    0.0000 H   0  0  0  0  0  0  0  0  0  0  0  0
    7.4040   -4.0041    0.0000 H   0  0  0  0  0  0  0  0  0  0  0  0
   11.7341   -2.5041    0.0000 H   0  0  0  0  0  0  0  0  0  0  0  0
    6.8671   -5.3141    0.0000 H   0  0  0  0  0  0  0  0  0  0  0  0
   12.0632   -2.3141    0.0000 H   0  0  0  0  0  0  0  0  0  0  0  0
   10.6603    0.1159    0.0000 H   0  0  0  0  0  0  0  0  0  0  0  0
   12.6002   -1.0041    0.0000 H   0  0  0  0  0  0  0  0  0  0  0  0
    5.4641   -5.5041    0.0000 H   0  0  0  0  0  0  0  0  0  0  0  0
    5.1350   -3.0741    0.0000 H   0  0  0  0  0  0  0  0  0  0  0  0
    5.1350   -5.3141    0.0000 H   0  0  0  0  0  0  0  0  0  0  0  0
   11.7341   -3.5041    0.0000 H   0  0  0  0  0  0  0  0  0  0  0  0
   10.9851    1.3885    0.0000 H   0  0  0  0  0  0  0  0  0  0  0  0
   10.5866    0.6982    0.0000 H   0  0  0  0  0  0  0  0  0  0  0  0
    7.7331   -5.8141    0.0000 H   0  0  0  0  0  0  0  0  0  0  0  0
   12.9292   -2.8141    0.0000 H   0  0  0  0  0  0  0  0  0  0  0  0
    4.6675   -2.7192    0.0000 H   0  0  0  0  0  0  0  0  0  0  0  0
    3.8705   -2.7192    0.0000 H   0  0  0  0  0  0  0  0  0  0  0  0
   13.4662   -0.5041    0.0000 H   0  0  0  0  0  0  0  0  0  0  0  0
    6.5380   -6.5041    0.0000 H   0  0  0  0  0  0  0  0  0  0  0  0
   12.6002    0.9959    0.0000 H   0  0  0  0  0  0  0  0  0  0  0  0
    3.7320   -5.8841    0.0000 H   0  0  0  0  0  0  0  0  0  0  0  0
    2.8660   -3.3841    0.0000 H   0  0  0  0  0  0  0  0  0  0  0  0
    3.4030   -6.0741    0.0000 H   0  0  0  0  0  0  0  0  0  0  0  0
    3.4030   -8.3141    0.0000 H   0  0  0  0  0  0  0  0  0  0  0  0
    5.6720   -7.3841    0.0000 H   0  0  0  0  0  0  0  0  0  0  0  0
    4.8059   -8.5041    0.0000 H   0  0  0  0  0  0  0  0  0  0  0  0
    2.0000   -6.5041    0.0000 H   0  0  0  0  0  0  0  0  0  0  0  0
    5.6910   -8.7311    0.0000 H   0  0  0  0  0  0  0  0  0  0  0  0
    6.5380   -8.5041    0.0000 H   0  0  0  0  0  0  0  0  0  0  0  0
    6.3110   -7.6572    0.0000 H   0  0  0  0  0  0  0  0  0  0  0  0
    2.5369   -8.8141    0.0000 H   0  0  0  0  0  0  0  0  0  0  0  0
    4.8059   -9.5041    0.0000 H   0  0  0  0  0  0  0  0  0  0  0  0
 33  1  1  1  0  0  0
  1 54  1  0  0  0  0
 39  2  1  6  0  0  0
 53  2  1  1  0  0  0
  3 47  1  0  0  0  0
  3125  1  0  0  0  0
  4 50  1  0  0  0  0
  4129  1  0  0  0  0
  5 53  1  0  0  0  0
  5 57  1  0  0  0  0
 55  6  1  6  0  0  0
 60  6  1  6  0  0  0
 56  7  1  1  0  0  0
 61  7  1  1  0  0  0
 58  8  1  1  0  0  0
  8138  1  0  0  0  0
  9 60  1  0  0  0  0
  9 65  1  0  0  0  0
 10 61  1  0  0  0  0
 10 68  1  0  0  0  0
 62 11  1  1  0  0  0
 11148  1  0  0  0  0
 63 12  1  6  0  0  0
 12151  1  0  0  0  0
 64 13  1  6  0  0  0
 13152  1  0  0  0  0
 66 14  1  1  0  0  0
 14155  1  0  0  0  0
 67 15  1  1  0  0  0
 15156  1  0  0  0  0
 69 16  1  6  0  0  0
 72 16  1  6  0  0  0
 17 70  1  0  0  0  0
 17157  1  0  0  0  0
 18 71  1  0  0  0  0
 18159  1  0  0  0  0
 19 72  1  0  0  0  0
 19 75  1  0  0  0  0
 73 20  1  1  0  0  0
 20164  1  0  0  0  0
 74 21  1  1  0  0  0
 21168  1  0  0  0  0
 76 22  1  6  0  0  0
 22169  1  0  0  0  0
 23 24  1  0  0  0  0
 23 26  1  0  0  0  0
 23 28  1  0  0  0  0
 23 38  1  6  0  0  0
 24 25  1  0  0  0  0
 24 33  1  0  0  0  0
 24 78  1  1  0  0  0
 25 27  1  0  0  0  0
 25 36  1  0  0  0  0
 25 41  1  6  0  0  0
 26 29  1  0  0  0  0
 26 35  1  0  0  0  0
 26 43  1  1  0  0  0
 27 30  1  0  0  0  0
 27 31  1  0  0  0  0
 27 79  1  1  0  0  0
 28 31  1  0  0  0  0
 28 80  1  0  0  0  0
 28 81  1  0  0  0  0
 29 32  1  0  0  0  0
 29 40  2  0  0  0  0
 30 39  1  0  0  0  0
 30 47  1  0  0  0  0
 30 48  1  6  0  0  0
 31 82  1  0  0  0  0
 31 83  1  0  0  0  0
 32 34  1  0  0  0  0
 32 44  1  0  0  0  0
 32 84  1  6  0  0  0
 33 40  1  0  0  0  0
 33 85  1  0  0  0  0
 34 37  1  0  0  0  0
 34 45  1  0  0  0  0
 34 50  1  6  0  0  0
 35 37  1  0  0  0  0
 35 86  1  0  0  0  0
 35 87  1  0  0  0  0
 36 42  1  0  0  0  0
 36 88  1  0  0  0  0
 36 89  1  0  0  0  0
 37 90  1  0  0  0  0
 37 91  1  0  0  0  0
 38 92  1  0  0  0  0
 38 93  1  0  0  0  0
 38 94  1  0  0  0  0
 39 42  1  0  0  0  0
 39 95  1  0  0  0  0
 40 96  1  0  0  0  0
 41 97  1  0  0  0  0
 41 98  1  0  0  0  0
 41 99  1  0  0  0  0
 42100  1  0  0  0  0
 42101  1  0  0  0  0
 43102  1  0  0  0  0
 43103  1  0  0  0  0
 43104  1  0  0  0  0
 44 46  1  0  0  0  0
 44105  1  0  0  0  0
 44106  1  0  0  0  0
 45 49  1  0  0  0  0
 45107  1  0  0  0  0
 45108  1  0  0  0  0
 46 49  1  0  0  0  0
 46 51  1  0  0  0  0
 46 52  1  0  0  0  0
 47109  1  0  0  0  0
 47110  1  0  0  0  0
 48111  1  0  0  0  0
 48112  1  0  0  0  0
 48113  1  0  0  0  0
 49114  1  0  0  0  0
 49115  1  0  0  0  0
 50116  1  0  0  0  0
 50117  1  0  0  0  0
 51118  1  0  0  0  0
 51119  1  0  0  0  0
 51120  1  0  0  0  0
 52121  1  0  0  0  0
 52122  1  0  0  0  0
 52123  1  0  0  0  0
 53 55  1  0  0  0  0
 53124  1  0  0  0  0
 54126  1  0  0  0  0
 54127  1  0  0  0  0
 54128  1  0  0  0  0
 55 56  1  0  0  0  0
 55130  1  0  0  0  0
 56 58  1  0  0  0  0
 56131  1  0  0  0  0
 57 58  1  0  0  0  0
 57 59  1  1  0  0  0
 57132  1  0  0  0  0
 58133  1  0  0  0  0
 59134  1  0  0  0  0
 59135  1  0  0  0  0
 59136  1  0  0  0  0
 60 62  1  0  0  0  0
 60137  1  0  0  0  0
 61 63  1  0  0  0  0
 61139  1  0  0  0  0
 62 64  1  0  0  0  0
 62140  1  0  0  0  0
 63 67  1  0  0  0  0
 63141  1  0  0  0  0
 64 66  1  0  0  0  0
 64142  1  0  0  0  0
 65 66  1  0  0  0  0
 65 70  1  6  0  0  0
 65143  1  0  0  0  0
 66144  1  0  0  0  0
 67 69  1  0  0  0  0
 67145  1  0  0  0  0
 68 69  1  0  0  0  0
 68 71  1  1  0  0  0
 68146  1  0  0  0  0
 69147  1  0  0  0  0
 70149  1  0  0  0  0
 70150  1  0  0  0  0
 71153  1  0  0  0  0
 71154  1  0  0  0  0
 72 73  1  0  0  0  0
 72158  1  0  0  0  0
 73 74  1  0  0  0  0
 73160  1  0  0  0  0
 74 76  1  0  0  0  0
 74161  1  0  0  0  0
 75 76  1  0  0  0  0
 75 77  1  1  0  0  0
 75162  1  0  0  0  0
 76163  1  0  0  0  0
 77165  1  0  0  0  0
 77166  1  0  0  0  0
 77167  1  0  0  0  0
M  END
> <PUBCHEM_COMPOUND_CID>
54586748

> <PUBCHEM_COMPOUND_CANONICALIZED>
1

> <PUBCHEM_CACTVS_COMPLEXITY>
2070

> <PUBCHEM_CACTVS_HBOND_ACCEPTOR>
22

> <PUBCHEM_CACTVS_HBOND_DONOR>
13

> <PUBCHEM_CACTVS_ROTATABLE_BOND>
13

> <PUBCHEM_CACTVS_SUBSKEYS>
AAADcfB8PgAAAAAAAAAAAAAAAAAAAAAAAAA0aNGiAAAAAADAAAAAGgAACAAADxSwgAMCCAAABgCAAiBCAAAAAAAgAAAACAAAAAgRFAIAIQAiUAAFgAAPIAPA4PwPgAAAAAAAAADAAAYAADAAAAAAAAAAAA==

> <PUBCHEM_IUPAC_OPENEYE_NAME>
(2S,3R,4R,5R,6S)-2-[(2R,3S,4R,5R,6S)-6-[(2R,3R,4S,5S,6R)-2-[[(3S,4R,4aR,6aR,6bS,8aS,12aS,14R,14aR,14bS)-4,8a-bis(hydroxymethyl)-14-methoxy-4,6a,6b,11,11,14b-hexamethyl-1,2,3,4a,5,6,7,8,9,10,12,12a,14,14a-tetradecahydropicen-3-yl]oxy]-5-hydroxy-6-methyl-3-[(2S,3R,4S,5S,6R)-3,4,5-trihydroxy-6-(hydroxymethyl)tetrahydropyran-2-yl]oxy-tetrahydropyran-4-yl]oxy-4,5-dihydroxy-2-(hydroxymethyl)tetrahydropyran-3-yl]oxy-6-methyl-tetrahydropyran-3,4,5-triol

> <PUBCHEM_IUPAC_CAS_NAME>
(2S,3R,4R,5R,6S)-2-[[(2R,3S,4R,5R,6S)-6-[[(2R,3R,4S,5S,6R)-2-[[(3S,4R,4aR,6aR,6bS,8aS,12aS,14R,14aR,14bS)-4,8a-bis(hydroxymethyl)-14-methoxy-4,6a,6b,11,11,14b-hexamethyl-1,2,3,4a,5,6,7,8,9,10,12,12a,14,14a-tetradecahydropicen-3-yl]oxy]-5-hydroxy-6-methyl-3-[[(2S,3R,4S,5S,6R)-3,4,5-trihydroxy-6-(hydroxymethyl)-2-oxanyl]oxy]-4-oxanyl]oxy]-4,5-dihydroxy-2-(hydroxymethyl)-3-oxanyl]oxy]-6-methyloxane-3,4,5-triol

> <PUBCHEM_IUPAC_NAME_MARKUP>
(2<I>S</I>,3<I>R</I>,4<I>R</I>,5<I>R</I>,6<I>S</I>)-2-[(2<I>R</I>,3<I>S</I>,4<I>R</I>,5<I>R</I>,6<I>S</I>)-6-[(2<I>R</I>,3<I>R</I>,4<I>S</I>,5<I>S</I>,6<I>R</I>)-2-[[(3<I>S</I>,4<I>R</I>,4<I>a</I><I>R</I>,6<I>a</I><I>R</I>,6<I>b</I><I>S</I>,8<I>a</I><I>S</I>,12<I>a</I><I>S</I>,14<I>R</I>,14<I>a</I><I>R</I>,14<I>b</I><I>S</I>)-4,8<I>a</I>-bis(hydroxymethyl)-14-methoxy-4,6<I>a</I>,6<I>b</I>,11,11,14<I>b</I>-hexamethyl-1,2,3,4<I>a</I>,5,6,7,8,9,10,12,12<I>a</I>,14,14<I>a</I>-tetradecahydropicen-3-yl]oxy]-5-hydroxy-6-methyl-3-[(2<I>S</I>,3<I>R</I>,4<I>S</I>,5<I>S</I>,6<I>R</I>)-3,4,5-trihydroxy-6-(hydroxymethyl)oxan-2-yl]oxyoxan-4-yl]oxy-4,5-dihydroxy-2-(hydroxymethyl)oxan-3-yl]oxy-6-methyloxane-3,4,5-triol

> <PUBCHEM_IUPAC_NAME>
(2S,3R,4R,5R,6S)-2-[(2R,3S,4R,5R,6S)-6-[(2R,3R,4S,5S,6R)-2-[[(3S,4R,4aR,6aR,6bS,8aS,12aS,14R,14aR,14bS)-4,8a-bis(hydroxymethyl)-14-methoxy-4,6a,6b,11,11,14b-hexamethyl-1,2,3,4a,5,6,7,8,9,10,12,12a,14,14a-tetradecahydropicen-3-yl]oxy]-5-hydroxy-6-methyl-3-[(2S,3R,4S,5S,6R)-3,4,5-trihydroxy-6-(hydroxymethyl)oxan-2-yl]oxyoxan-4-yl]oxy-4,5-dihydroxy-2-(hydroxymethyl)oxan-3-yl]oxy-6-methyloxane-3,4,5-triol

> <PUBCHEM_IUPAC_SYSTEMATIC_NAME>
(2S,3R,4R,5R,6S)-2-[(2R,3S,4R,5R,6S)-6-[(2R,3R,4S,5S,6R)-2-[[(3S,4R,4aR,6aR,6bS,8aS,12aS,14R,14aR,14bS)-4,8a-bis(hydroxymethyl)-14-methoxy-4,6a,6b,11,11,14b-hexamethyl-1,2,3,4a,5,6,7,8,9,10,12,12a,14,14a-tetradecahydropicen-3-yl]oxy]-3-[(2S,3R,4S,5S,6R)-6-(hydroxymethyl)-3,4,5-tris(oxidanyl)oxan-2-yl]oxy-6-methyl-5-oxidanyl-oxan-4-yl]oxy-2-(hydroxymethyl)-4,5-bis(oxidanyl)oxan-3-yl]oxy-6-methyl-oxane-3,4,5-triol

> <PUBCHEM_IUPAC_TRADITIONAL_NAME>
(2S,3R,4R,5R,6S)-2-[(2R,3S,4R,5R,6S)-6-[(2R,3R,4S,5S,6R)-2-[[(3S,4R,4aR,6aR,6bS,8aS,12aS,14R,14aR,14bS)-14-methoxy-4,6a,6b,11,11,14b-hexamethyl-4,8a-dimethylol-1,2,3,4a,5,6,7,8,9,10,12,12a,14,14a-tetradecahydropicen-3-yl]oxy]-5-hydroxy-6-methyl-3-[(2S,3R,4S,5S,6R)-3,4,5-trihydroxy-6-methylol-tetrahydropyran-2-yl]oxy-tetrahydropyran-4-yl]oxy-4,5-dihydroxy-2-methylol-tetrahydropyran-3-yl]oxy-6-methyl-tetrahydropyran-3,4,5-triol

> <PUBCHEM_IUPAC_INCHI>
InChI=1S/C55H92O22/c1-24-33(60)36(63)39(66)46(70-24)75-42-30(21-57)73-48(41(68)38(42)65)76-43-34(61)25(2)71-49(44(43)77-47-40(67)37(64)35(62)29(20-56)72-47)74-32-11-12-51(5)31(52(32,6)22-58)10-13-54(8)45(51)28(69-9)18-26-27-19-50(3,4)14-16-55(27,23-59)17-15-53(26,54)7/h18,24-25,27-49,56-68H,10-17,19-23H2,1-9H3/t24-,25+,27-,28+,29+,30+,31+,32-,33-,34-,35+,36+,37-,38+,39+,40+,41+,42+,43-,44+,45+,46-,47-,48-,49-,51-,52-,53+,54+,55+/m0/s1

> <PUBCHEM_IUPAC_INCHIKEY>
FOSCLSOVGLTOKV-BLXPMSAXSA-N

> <PUBCHEM_XLOGP3_AA>
-0.2

> <PUBCHEM_EXACT_MASS>
1104.608025

> <PUBCHEM_MOLECULAR_FORMULA>
C55H92O22

> <PUBCHEM_MOLECULAR_WEIGHT>
1105.3

> <PUBCHEM_OPENEYE_CAN_SMILES>
CC1C(C(C(C(O1)OC2C(OC(C(C2O)O)OC3C(C(OC(C3OC4C(C(C(C(O4)CO)O)O)O)OC5CCC6(C(C5(C)CO)CCC7(C6C(C=C8C7(CCC9(C8CC(CC9)(C)C)CO)C)OC)C)C)C)O)CO)O)O)O

> <PUBCHEM_OPENEYE_ISO_SMILES>
C[C@H]1[C@@H]([C@H]([C@H]([C@@H](O1)O[C@@H]2[C@H](O[C@H]([C@@H]([C@H]2O)O)O[C@H]3[C@H]([C@H](O[C@H]([C@@H]3O[C@H]4[C@@H]([C@H]([C@@H]([C@H](O4)CO)O)O)O)O[C@H]5CC[C@]6([C@H]([C@]5(C)CO)CC[C@@]7([C@@H]6[C@@H](C=C8[C@]7(CC[C@@]9([C@H]8CC(CC9)(C)C)CO)C)OC)C)C)C)O)CO)O)O)O

> <PUBCHEM_CACTVS_TPSA>
346

> <PUBCHEM_MONOISOTOPIC_WEIGHT>
1104.608025

> <PUBCHEM_TOTAL_CHARGE>
0

> <PUBCHEM_HEAVY_ATOM_COUNT>
77

> <PUBCHEM_ATOM_DEF_STEREO_COUNT>
30

> <PUBCHEM_ATOM_UDEF_STEREO_COUNT>
0

> <PUBCHEM_BOND_DEF_STEREO_COUNT>
0

> <PUBCHEM_BOND_UDEF_STEREO_COUNT>
0

> <PUBCHEM_ISOTOPIC_ATOM_COUNT>
0

> <PUBCHEM_COMPONENT_COUNT>
1

> <PUBCHEM_CACTVS_TAUTO_COUNT>
-1

> <PUBCHEM_COORDINATE_TYPE>
1
5
255

> <PUBCHEM_BONDANNOTATIONS>
33  1  5
62  11  5
63  12  6
64  13  6
66  14  5
67  15  5
69  16  6
72  16  6
39  2  6
53  2  5
73  20  5
74  21  5
76  22  6
23  38  6
24  78  5
25  41  6
26  43  5
27  79  5
30  48  6
32  84  6
34  50  6
57  59  5
55  6  6
60  6  6
65  70  6
68  71  5
56  7  5
61  7  5
75  77  5
58  8  5

$$$$
