21602032
  -OEChem-09182006062D

140147  0     1  0  0  0  0  0999 V2000
   12.1404    7.5580    0.0000 O   0  0  0  0  0  0  0  0  0  0  0  0
    9.4651   -0.1941    0.0000 O   0  0  0  0  0  0  0  0  0  0  0  0
   11.2189    9.0853    0.0000 O   0  0  0  0  0  0  0  0  0  0  0  0
   11.9093    0.4975    0.0000 O   0  0  0  0  0  0  0  0  0  0  0  0
    7.7331   -0.1941    0.0000 O   0  0  0  0  0  0  0  0  0  0  0  0
    9.4651   -2.1941    0.0000 O   0  0  0  0  0  0  0  0  0  0  0  0
    7.7331   -3.1941    0.0000 O   0  0  0  0  0  0  0  0  0  0  0  0
    6.0010   -2.1941    0.0000 O   0  0  0  0  0  0  0  0  0  0  0  0
    6.0010   -3.1941    0.0000 O   0  0  0  0  0  0  0  0  0  0  0  0
    7.7331   -5.1941    0.0000 O   0  0  0  0  0  0  0  0  0  0  0  0
    6.0010   -6.1941    0.0000 O   0  0  0  0  0  0  0  0  0  0  0  0
    4.2690   -5.1941    0.0000 O   0  0  0  0  0  0  0  0  0  0  0  0
    3.4030   -3.6941    0.0000 O   0  0  0  0  0  0  0  0  0  0  0  0
    5.1350   -6.6941    0.0000 O   0  0  0  0  0  0  0  0  0  0  0  0
    2.5369   -6.1941    0.0000 O   0  0  0  0  0  0  0  0  0  0  0  0
    2.5369   -8.1941    0.0000 O   0  0  0  0  0  0  0  0  0  0  0  0
    4.2690   -9.1941    0.0000 O   0  0  0  0  0  0  0  0  0  0  0  0
   10.3662    4.5061    0.0000 C   0  0  1  0  0  0  0  0  0  0  0  0
   10.3623    5.5061    0.0000 C   0  0  1  0  0  0  0  0  0  0  0  0
    9.4901    2.9612    0.0000 C   0  0  1  0  0  0  0  0  0  0  0  0
   10.3901    2.4369    0.0000 C   0  0  2  0  0  0  0  0  0  0  0  0
   10.3703    7.5754    0.0000 C   0  0  1  0  0  0  0  0  0  0  0  0
    9.5021    4.0028    0.0000 C   0  0  0  0  0  0  0  0  0  0  0  0
    9.4743    7.0442    0.0000 C   0  0  2  0  0  0  0  0  0  0  0  0
    9.4944    6.0027    0.0000 C   0  0  0  0  0  0  0  0  0  0  0  0
   11.2781    4.0028    0.0000 C   0  0  0  0  0  0  0  0  0  0  0  0
   11.2704    6.0164    0.0000 C   0  0  0  0  0  0  0  0  0  0  0  0
   10.4027    1.3520    0.0000 C   0  0  1  0  0  0  0  0  0  0  0  0
   11.2902    2.9612    0.0000 C   0  0  0  0  0  0  0  0  0  0  0  0
   11.2744    7.0580    0.0000 C   0  0  2  0  0  0  0  0  0  0  0  0
    8.5402    2.4369    0.0000 C   0  0  0  0  0  0  0  0  0  0  0  0
    8.5204    7.5611    0.0000 C   0  0  0  0  0  0  0  0  0  0  0  0
   10.3745    8.6604    0.0000 C   0  0  0  0  0  0  0  0  0  0  0  0
    9.4651    0.8059    0.0000 C   0  0  2  0  0  0  0  0  0  0  0  0
   11.3503    4.6835    0.0000 C   0  0  0  0  0  0  0  0  0  0  0  0
    8.4995    8.6459    0.0000 C   0  0  0  0  0  0  0  0  0  0  0  0
   11.3478    5.3362    0.0000 C   0  0  0  0  0  0  0  0  0  0  0  0
    8.5276    1.3520    0.0000 C   0  0  0  0  0  0  0  0  0  0  0  0
    8.6342    4.4994    0.0000 C   0  0  0  0  0  0  0  0  0  0  0  0
    8.6303    5.4994    0.0000 C   0  0  0  0  0  0  0  0  0  0  0  0
    8.6260    3.4645    0.0000 C   0  0  0  0  0  0  0  0  0  0  0  0
    9.4328    9.1992    0.0000 C   0  0  0  0  0  0  0  0  0  0  0  0
   11.2305    8.0854    0.0000 C   0  0  0  0  0  0  0  0  0  0  0  0
   11.4026    1.3597    0.0000 C   0  0  0  0  0  0  0  0  0  0  0  0
   10.9093    0.4898    0.0000 C   0  0  0  0  0  0  0  0  0  0  0  0
    7.9862    9.5041    0.0000 C   0  0  0  0  0  0  0  0  0  0  0  0
    7.4996    8.6305    0.0000 C   0  0  0  0  0  0  0  0  0  0  0  0
    8.5991   -0.6941    0.0000 C   0  0  2  0  0  0  0  0  0  0  0  0
    8.5991   -1.6941    0.0000 C   0  0  1  0  0  0  0  0  0  0  0  0
    7.7331   -2.1941    0.0000 C   0  0  2  0  0  0  0  0  0  0  0  0
    6.8671   -0.6941    0.0000 C   0  0  1  0  0  0  0  0  0  0  0  0
    6.8671   -1.6941    0.0000 C   0  0  2  0  0  0  0  0  0  0  0  0
    6.0010   -0.1941    0.0000 C   0  0  0  0  0  0  0  0  0  0  0  0
    6.8671   -3.6941    0.0000 C   0  0  2  0  0  0  0  0  0  0  0  0
    6.8671   -4.6941    0.0000 C   0  0  1  0  0  0  0  0  0  0  0  0
    6.0010   -5.1941    0.0000 C   0  0  2  0  0  0  0  0  0  0  0  0
    5.1350   -3.6941    0.0000 C   0  0  1  0  0  0  0  0  0  0  0  0
    5.1350   -4.6941    0.0000 C   0  0  1  0  0  0  0  0  0  0  0  0
    4.2690   -3.1941    0.0000 C   0  0  0  0  0  0  0  0  0  0  0  0
    4.2690   -6.1941    0.0000 C   0  0  2  0  0  0  0  0  0  0  0  0
    3.4030   -6.6941    0.0000 C   0  0  1  0  0  0  0  0  0  0  0  0
    3.4030   -7.6941    0.0000 C   0  0  2  0  0  0  0  0  0  0  0  0
    4.2690   -8.1941    0.0000 C   0  0  1  0  0  0  0  0  0  0  0  0
    5.1350   -7.6941    0.0000 C   0  0  0  0  0  0  0  0  0  0  0  0
   11.1295    2.0176    0.0000 H   0  0  0  0  0  0  0  0  0  0  0  0
    8.7482    6.6023    0.0000 H   0  0  0  0  0  0  0  0  0  0  0  0
   11.8902    3.9037    0.0000 H   0  0  0  0  0  0  0  0  0  0  0  0
   11.4804    4.5888    0.0000 H   0  0  0  0  0  0  0  0  0  0  0  0
   11.4772    5.4319    0.0000 H   0  0  0  0  0  0  0  0  0  0  0  0
   11.8816    6.1202    0.0000 H   0  0  0  0  0  0  0  0  0  0  0  0
   11.5060    2.3800    0.0000 H   0  0  0  0  0  0  0  0  0  0  0  0
   11.8998    3.0743    0.0000 H   0  0  0  0  0  0  0  0  0  0  0  0
   11.8107    6.7470    0.0000 H   0  0  0  0  0  0  0  0  0  0  0  0
    8.3379    3.0230    0.0000 H   0  0  0  0  0  0  0  0  0  0  0  0
    7.9281    2.3379    0.0000 H   0  0  0  0  0  0  0  0  0  0  0  0
    7.9076    7.6554    0.0000 H   0  0  0  0  0  0  0  0  0  0  0  0
    8.3226    6.9735    0.0000 H   0  0  0  0  0  0  0  0  0  0  0  0
   10.9849    8.5519    0.0000 H   0  0  0  0  0  0  0  0  0  0  0  0
   10.5858    9.2433    0.0000 H   0  0  0  0  0  0  0  0  0  0  0  0
   10.0027    0.4969    0.0000 H   0  0  0  0  0  0  0  0  0  0  0  0
   11.4603    4.0734    0.0000 H   0  0  0  0  0  0  0  0  0  0  0  0
   11.9605    4.7936    0.0000 H   0  0  0  0  0  0  0  0  0  0  0  0
   11.2403    5.2937    0.0000 H   0  0  0  0  0  0  0  0  0  0  0  0
   11.2425    4.7252    0.0000 H   0  0  0  0  0  0  0  0  0  0  0  0
   11.9588    5.2309    0.0000 H   0  0  0  0  0  0  0  0  0  0  0  0
   11.4531    5.9472    0.0000 H   0  0  0  0  0  0  0  0  0  0  0  0
    7.9180    1.4651    0.0000 H   0  0  0  0  0  0  0  0  0  0  0  0
    8.3118    0.7707    0.0000 H   0  0  0  0  0  0  0  0  0  0  0  0
    8.0984    4.1873    0.0000 H   0  0  0  0  0  0  0  0  0  0  0  0
    8.0922    5.8073    0.0000 H   0  0  0  0  0  0  0  0  0  0  0  0
    8.9380    4.0003    0.0000 H   0  0  0  0  0  0  0  0  0  0  0  0
    8.0902    3.7766    0.0000 H   0  0  0  0  0  0  0  0  0  0  0  0
    8.3139    2.9288    0.0000 H   0  0  0  0  0  0  0  0  0  0  0  0
    9.8282    9.6767    0.0000 H   0  0  0  0  0  0  0  0  0  0  0  0
    9.0300    9.6706    0.0000 H   0  0  0  0  0  0  0  0  0  0  0  0
   11.4493    7.5052    0.0000 H   0  0  0  0  0  0  0  0  0  0  0  0
   11.8398    8.2001    0.0000 H   0  0  0  0  0  0  0  0  0  0  0  0
   11.9836    1.5762    0.0000 H   0  0  0  0  0  0  0  0  0  0  0  0
   11.2903    1.9694    0.0000 H   0  0  0  0  0  0  0  0  0  0  0  0
   10.3748    0.1757    0.0000 H   0  0  0  0  0  0  0  0  0  0  0  0
   11.2235   -0.0447    0.0000 H   0  0  0  0  0  0  0  0  0  0  0  0
   11.4439    0.8040    0.0000 H   0  0  0  0  0  0  0  0  0  0  0  0
    8.5183    9.8224    0.0000 H   0  0  0  0  0  0  0  0  0  0  0  0
    7.6680   10.0362    0.0000 H   0  0  0  0  0  0  0  0  0  0  0  0
    7.4541    9.1859    0.0000 H   0  0  0  0  0  0  0  0  0  0  0  0
    7.4900    9.2504    0.0000 H   0  0  0  0  0  0  0  0  0  0  0  0
    6.8797    8.6209    0.0000 H   0  0  0  0  0  0  0  0  0  0  0  0
    7.5092    8.0106    0.0000 H   0  0  0  0  0  0  0  0  0  0  0  0
   12.6774    7.2480    0.0000 H   0  0  0  0  0  0  0  0  0  0  0  0
   11.7523    9.4015    0.0000 H   0  0  0  0  0  0  0  0  0  0  0  0
    8.5991   -0.0741    0.0000 H   0  0  0  0  0  0  0  0  0  0  0  0
   12.5293    0.5023    0.0000 H   0  0  0  0  0  0  0  0  0  0  0  0
    8.5991   -2.3141    0.0000 H   0  0  0  0  0  0  0  0  0  0  0  0
    7.1962   -2.5041    0.0000 H   0  0  0  0  0  0  0  0  0  0  0  0
    6.8671   -0.0741    0.0000 H   0  0  0  0  0  0  0  0  0  0  0  0
    6.8671   -2.3141    0.0000 H   0  0  0  0  0  0  0  0  0  0  0  0
    9.4651   -2.8141    0.0000 H   0  0  0  0  0  0  0  0  0  0  0  0
    6.3110    0.3428    0.0000 H   0  0  0  0  0  0  0  0  0  0  0  0
    5.4641    0.1159    0.0000 H   0  0  0  0  0  0  0  0  0  0  0  0
    5.6910   -0.7311    0.0000 H   0  0  0  0  0  0  0  0  0  0  0  0
    5.4641   -1.8841    0.0000 H   0  0  0  0  0  0  0  0  0  0  0  0
    7.4040   -4.0041    0.0000 H   0  0  0  0  0  0  0  0  0  0  0  0
    6.8671   -5.3141    0.0000 H   0  0  0  0  0  0  0  0  0  0  0  0
    5.4641   -5.5041    0.0000 H   0  0  0  0  0  0  0  0  0  0  0  0
    5.1350   -3.0741    0.0000 H   0  0  0  0  0  0  0  0  0  0  0  0
    5.1350   -5.3141    0.0000 H   0  0  0  0  0  0  0  0  0  0  0  0
    8.2700   -4.8841    0.0000 H   0  0  0  0  0  0  0  0  0  0  0  0
    4.6675   -2.7192    0.0000 H   0  0  0  0  0  0  0  0  0  0  0  0
    3.8705   -2.7192    0.0000 H   0  0  0  0  0  0  0  0  0  0  0  0
    6.5380   -6.5041    0.0000 H   0  0  0  0  0  0  0  0  0  0  0  0
    3.7320   -5.8841    0.0000 H   0  0  0  0  0  0  0  0  0  0  0  0
    2.8660   -3.3841    0.0000 H   0  0  0  0  0  0  0  0  0  0  0  0
    3.4030   -6.0741    0.0000 H   0  0  0  0  0  0  0  0  0  0  0  0
    3.4030   -8.3141    0.0000 H   0  0  0  0  0  0  0  0  0  0  0  0
    4.8059   -8.5041    0.0000 H   0  0  0  0  0  0  0  0  0  0  0  0
    5.3471   -8.2767    0.0000 H   0  0  0  0  0  0  0  0  0  0  0  0
    5.7456   -7.5865    0.0000 H   0  0  0  0  0  0  0  0  0  0  0  0
    2.0000   -6.5041    0.0000 H   0  0  0  0  0  0  0  0  0  0  0  0
    2.5369   -8.8141    0.0000 H   0  0  0  0  0  0  0  0  0  0  0  0
    4.8059   -9.5041    0.0000 H   0  0  0  0  0  0  0  0  0  0  0  0
 30  1  1  1  0  0  0
  1109  1  0  0  0  0
 34  2  1  1  0  0  0
 48  2  1  1  0  0  0
  3 43  1  0  0  0  0
  3110  1  0  0  0  0
  4 44  1  0  0  0  0
  4112  1  0  0  0  0
  5 48  1  0  0  0  0
  5 51  1  0  0  0  0
 49  6  1  6  0  0  0
  6117  1  0  0  0  0
 50  7  1  1  0  0  0
 54  7  1  1  0  0  0
 52  8  1  1  0  0  0
  8121  1  0  0  0  0
  9 54  1  0  0  0  0
  9 57  1  0  0  0  0
 55 10  1  6  0  0  0
 10127  1  0  0  0  0
 56 11  1  1  0  0  0
 11130  1  0  0  0  0
 58 12  1  6  0  0  0
 60 12  1  6  0  0  0
 13 59  1  0  0  0  0
 13132  1  0  0  0  0
 14 60  1  0  0  0  0
 14 64  1  0  0  0  0
 61 15  1  1  0  0  0
 15138  1  0  0  0  0
 62 16  1  6  0  0  0
 16139  1  0  0  0  0
 63 17  1  1  0  0  0
 17140  1  0  0  0  0
 18 19  1  0  0  0  0
 18 23  1  0  0  0  0
 18 26  1  0  0  0  0
 18 35  1  1  0  0  0
 19 25  1  0  0  0  0
 19 27  1  0  0  0  0
 19 37  1  6  0  0  0
 20 21  1  0  0  0  0
 20 23  1  0  0  0  0
 20 31  1  0  0  0  0
 20 41  1  1  0  0  0
 21 28  1  0  0  0  0
 21 29  1  0  0  0  0
 21 65  1  6  0  0  0
 22 24  1  0  0  0  0
 22 30  1  0  0  0  0
 22 33  1  0  0  0  0
 22 43  1  1  0  0  0
 23 39  2  0  0  0  0
 24 25  1  0  0  0  0
 24 32  1  0  0  0  0
 24 66  1  1  0  0  0
 25 40  2  0  0  0  0
 26 29  1  0  0  0  0
 26 67  1  0  0  0  0
 26 68  1  0  0  0  0
 27 30  1  0  0  0  0
 27 69  1  0  0  0  0
 27 70  1  0  0  0  0
 28 34  1  0  0  0  0
 28 44  1  0  0  0  0
 28 45  1  1  0  0  0
 29 71  1  0  0  0  0
 29 72  1  0  0  0  0
 30 73  1  0  0  0  0
 31 38  1  0  0  0  0
 31 74  1  0  0  0  0
 31 75  1  0  0  0  0
 32 36  1  0  0  0  0
 32 76  1  0  0  0  0
 32 77  1  0  0  0  0
 33 42  1  0  0  0  0
 33 78  1  0  0  0  0
 33 79  1  0  0  0  0
 34 38  1  0  0  0  0
 34 80  1  0  0  0  0
 35 81  1  0  0  0  0
 35 82  1  0  0  0  0
 35 83  1  0  0  0  0
 36 42  1  0  0  0  0
 36 46  1  0  0  0  0
 36 47  1  0  0  0  0
 37 84  1  0  0  0  0
 37 85  1  0  0  0  0
 37 86  1  0  0  0  0
 38 87  1  0  0  0  0
 38 88  1  0  0  0  0
 39 40  1  0  0  0  0
 39 89  1  0  0  0  0
 40 90  1  0  0  0  0
 41 91  1  0  0  0  0
 41 92  1  0  0  0  0
 41 93  1  0  0  0  0
 42 94  1  0  0  0  0
 42 95  1  0  0  0  0
 43 96  1  0  0  0  0
 43 97  1  0  0  0  0
 44 98  1  0  0  0  0
 44 99  1  0  0  0  0
 45100  1  0  0  0  0
 45101  1  0  0  0  0
 45102  1  0  0  0  0
 46103  1  0  0  0  0
 46104  1  0  0  0  0
 46105  1  0  0  0  0
 47106  1  0  0  0  0
 47107  1  0  0  0  0
 47108  1  0  0  0  0
 48 49  1  0  0  0  0
 48111  1  0  0  0  0
 49 50  1  0  0  0  0
 49113  1  0  0  0  0
 50 52  1  0  0  0  0
 50114  1  0  0  0  0
 51 52  1  0  0  0  0
 51 53  1  1  0  0  0
 51115  1  0  0  0  0
 52116  1  0  0  0  0
 53118  1  0  0  0  0
 53119  1  0  0  0  0
 53120  1  0  0  0  0
 54 55  1  0  0  0  0
 54122  1  0  0  0  0
 55 56  1  0  0  0  0
 55123  1  0  0  0  0
 56 58  1  0  0  0  0
 56124  1  0  0  0  0
 57 58  1  0  0  0  0
 57 59  1  1  0  0  0
 57125  1  0  0  0  0
 58126  1  0  0  0  0
 59128  1  0  0  0  0
 59129  1  0  0  0  0
 60 61  1  0  0  0  0
 60131  1  0  0  0  0
 61 62  1  0  0  0  0
 61133  1  0  0  0  0
 62 63  1  0  0  0  0
 62134  1  0  0  0  0
 63 64  1  0  0  0  0
 63135  1  0  0  0  0
 64136  1  0  0  0  0
 64137  1  0  0  0  0
M  END
> <PUBCHEM_COMPOUND_CID>
21602032

> <PUBCHEM_COMPOUND_CANONICALIZED>
1

> <PUBCHEM_CACTVS_COMPLEXITY>
1760

> <PUBCHEM_CACTVS_HBOND_ACCEPTOR>
17

> <PUBCHEM_CACTVS_HBOND_DONOR>
11

> <PUBCHEM_CACTVS_ROTATABLE_BOND>
9

> <PUBCHEM_CACTVS_SUBSKEYS>
AAADcfB8PgAAAAAAAAAAAAAAAAAAAAAAAAA0aNGCAAAAAADAAAAAGgAACAAADxSwgAMCCAAABgCAAiBCAAAAAAAgAAAACAAAAAgZEAIAAQAiQAAFgAAPgAPA4PwPgAAAAAAAAADAAAYAADAAAAAAAAAAAA==

> <PUBCHEM_IUPAC_OPENEYE_NAME>
(2S,3R,4S,5R)-2-[(2R,3S,4R,5R,6S)-6-[(2R,3R,4S,5S,6R)-2-[[(3S,4R,4aR,6aS,6bR,8S,8aS,12aS,14bS)-8-hydroxy-4,8a-bis(hydroxymethyl)-4,6a,6b,11,11,14b-hexamethyl-1,2,3,4a,5,6,7,8,9,10,12,12a-dodecahydropicen-3-yl]oxy]-3,5-dihydroxy-6-methyl-tetrahydropyran-4-yl]oxy-4,5-dihydroxy-2-(hydroxymethyl)tetrahydropyran-3-yl]oxytetrahydropyran-3,4,5-triol

> <PUBCHEM_IUPAC_CAS_NAME>
(2S,3R,4S,5R)-2-[[(2R,3S,4R,5R,6S)-6-[[(2R,3R,4S,5S,6R)-2-[[(3S,4R,4aR,6aS,6bR,8S,8aS,12aS,14bS)-8-hydroxy-4,8a-bis(hydroxymethyl)-4,6a,6b,11,11,14b-hexamethyl-1,2,3,4a,5,6,7,8,9,10,12,12a-dodecahydropicen-3-yl]oxy]-3,5-dihydroxy-6-methyl-4-oxanyl]oxy]-4,5-dihydroxy-2-(hydroxymethyl)-3-oxanyl]oxy]oxane-3,4,5-triol

> <PUBCHEM_IUPAC_NAME_MARKUP>
(2<I>S</I>,3<I>R</I>,4<I>S</I>,5<I>R</I>)-2-[(2<I>R</I>,3<I>S</I>,4<I>R</I>,5<I>R</I>,6<I>S</I>)-6-[(2<I>R</I>,3<I>R</I>,4<I>S</I>,5<I>S</I>,6<I>R</I>)-2-[[(3<I>S</I>,4<I>R</I>,4<I>a</I><I>R</I>,6<I>a</I><I>S</I>,6<I>b</I><I>R</I>,8<I>S</I>,8<I>a</I><I>S</I>,12<I>a</I><I>S</I>,14<I>b</I><I>S</I>)-8-hydroxy-4,8<I>a</I>-bis(hydroxymethyl)-4,6<I>a</I>,6<I>b</I>,11,11,14<I>b</I>-hexamethyl-1,2,3,4<I>a</I>,5,6,7,8,9,10,12,12<I>a</I>-dodecahydropicen-3-yl]oxy]-3,5-dihydroxy-6-methyloxan-4-yl]oxy-4,5-dihydroxy-2-(hydroxymethyl)oxan-3-yl]oxyoxane-3,4,5-triol

> <PUBCHEM_IUPAC_NAME>
(2S,3R,4S,5R)-2-[(2R,3S,4R,5R,6S)-6-[(2R,3R,4S,5S,6R)-2-[[(3S,4R,4aR,6aS,6bR,8S,8aS,12aS,14bS)-8-hydroxy-4,8a-bis(hydroxymethyl)-4,6a,6b,11,11,14b-hexamethyl-1,2,3,4a,5,6,7,8,9,10,12,12a-dodecahydropicen-3-yl]oxy]-3,5-dihydroxy-6-methyloxan-4-yl]oxy-4,5-dihydroxy-2-(hydroxymethyl)oxan-3-yl]oxyoxane-3,4,5-triol

> <PUBCHEM_IUPAC_SYSTEMATIC_NAME>
(2S,3R,4S,5R)-2-[(2R,3S,4R,5R,6S)-6-[(2R,3R,4S,5S,6R)-2-[[(3S,4R,4aR,6aS,6bR,8S,8aS,12aS,14bS)-4,8a-bis(hydroxymethyl)-4,6a,6b,11,11,14b-hexamethyl-8-oxidanyl-1,2,3,4a,5,6,7,8,9,10,12,12a-dodecahydropicen-3-yl]oxy]-6-methyl-3,5-bis(oxidanyl)oxan-4-yl]oxy-2-(hydroxymethyl)-4,5-bis(oxidanyl)oxan-3-yl]oxyoxane-3,4,5-triol

> <PUBCHEM_IUPAC_TRADITIONAL_NAME>
(2S,3R,4S,5R)-2-[(2R,3S,4R,5R,6S)-6-[(2R,3R,4S,5S,6R)-2-[[(3S,4R,4aR,6aS,6bR,8S,8aS,12aS,14bS)-8-hydroxy-4,6a,6b,11,11,14b-hexamethyl-4,8a-dimethylol-1,2,3,4a,5,6,7,8,9,10,12,12a-dodecahydropicen-3-yl]oxy]-3,5-dihydroxy-6-methyl-tetrahydropyran-4-yl]oxy-4,5-dihydroxy-2-methylol-tetrahydropyran-3-yl]oxytetrahydropyran-3,4,5-triol

> <PUBCHEM_IUPAC_INCHI>
InChI=1S/C47H76O17/c1-22-31(53)38(64-40-35(57)33(55)37(26(18-48)61-40)63-39-34(56)32(54)25(51)19-59-39)36(58)41(60-22)62-30-11-12-43(4)27(44(30,5)20-49)10-13-45(6)28(43)9-8-23-24-16-42(2,3)14-15-47(24,21-50)29(52)17-46(23,45)7/h8-9,22,24-27,29-41,48-58H,10-21H2,1-7H3/t22-,24+,25-,26-,27-,29+,30+,31+,32+,33-,34-,35-,36-,37-,38+,39+,40+,41+,43+,44+,45-,46-,47-/m1/s1

> <PUBCHEM_IUPAC_INCHIKEY>
JIHQJAJJWXKVPN-BBTOJCRJSA-N

> <PUBCHEM_XLOGP3_AA>
0.7

> <PUBCHEM_EXACT_MASS>
912.508251

> <PUBCHEM_MOLECULAR_FORMULA>
C47H76O17

> <PUBCHEM_MOLECULAR_WEIGHT>
913.1

> <PUBCHEM_OPENEYE_CAN_SMILES>
CC1C(C(C(C(O1)OC2CCC3(C(C2(C)CO)CCC4(C3=CC=C5C4(CC(C6(C5CC(CC6)(C)C)CO)O)C)C)C)O)OC7C(C(C(C(O7)CO)OC8C(C(C(CO8)O)O)O)O)O)O

> <PUBCHEM_OPENEYE_ISO_SMILES>
C[C@@H]1[C@@H]([C@@H]([C@H]([C@@H](O1)O[C@H]2CC[C@]3([C@H]([C@]2(C)CO)CC[C@@]4(C3=CC=C5[C@]4(C[C@@H]([C@@]6([C@H]5CC(CC6)(C)C)CO)O)C)C)C)O)O[C@H]7[C@@H]([C@H]([C@@H]([C@H](O7)CO)O[C@H]8[C@@H]([C@H]([C@@H](CO8)O)O)O)O)O)O

> <PUBCHEM_CACTVS_TPSA>
278

> <PUBCHEM_MONOISOTOPIC_WEIGHT>
912.508251

> <PUBCHEM_TOTAL_CHARGE>
0

> <PUBCHEM_HEAVY_ATOM_COUNT>
64

> <PUBCHEM_ATOM_DEF_STEREO_COUNT>
23

> <PUBCHEM_ATOM_UDEF_STEREO_COUNT>
0

> <PUBCHEM_BOND_DEF_STEREO_COUNT>
0

> <PUBCHEM_BOND_UDEF_STEREO_COUNT>
0

> <PUBCHEM_ISOTOPIC_ATOM_COUNT>
0

> <PUBCHEM_COMPONENT_COUNT>
1

> <PUBCHEM_CACTVS_TAUTO_COUNT>
-1

> <PUBCHEM_COORDINATE_TYPE>
1
5
255

> <PUBCHEM_BONDANNOTATIONS>
30  1  5
55  10  6
56  11  5
58  12  6
60  12  6
61  15  5
62  16  6
63  17  5
18  35  5
19  37  6
34  2  5
48  2  5
20  41  5
21  65  6
22  43  5
24  66  5
28  45  5
51  53  5
57  59  5
49  6  6
50  7  5
54  7  5
52  8  5

$$$$
