44566640
  -OEChem-09182006052D

164172  0     1  0  0  0  0  0999 V2000
    6.7898    7.5580    0.0000 O   0  0  0  0  0  0  0  0  0  0  0  0
    9.4651   -0.1941    0.0000 O   0  0  0  0  0  0  0  0  0  0  0  0
    7.7113    9.0853    0.0000 O   0  0  0  0  0  0  0  0  0  0  0  0
    7.0210    0.4975    0.0000 O   0  0  0  0  0  0  0  0  0  0  0  0
    7.7331   -0.1941    0.0000 O   0  0  0  0  0  0  0  0  0  0  0  0
    9.4651   -2.1941    0.0000 O   0  0  0  0  0  0  0  0  0  0  0  0
    7.7331   -3.1941    0.0000 O   0  0  0  0  0  0  0  0  0  0  0  0
    6.0010   -2.1941    0.0000 O   0  0  0  0  0  0  0  0  0  0  0  0
   10.3312   -0.6941    0.0000 O   0  0  0  0  0  0  0  0  0  0  0  0
    6.0010   -3.1941    0.0000 O   0  0  0  0  0  0  0  0  0  0  0  0
   11.1972   -3.1941    0.0000 O   0  0  0  0  0  0  0  0  0  0  0  0
    7.7331   -5.1941    0.0000 O   0  0  0  0  0  0  0  0  0  0  0  0
   12.9292   -2.1941    0.0000 O   0  0  0  0  0  0  0  0  0  0  0  0
   12.9292   -0.1941    0.0000 O   0  0  0  0  0  0  0  0  0  0  0  0
    6.0010   -6.1941    0.0000 O   0  0  0  0  0  0  0  0  0  0  0  0
    4.2690   -5.1941    0.0000 O   0  0  0  0  0  0  0  0  0  0  0  0
   12.0632    1.3059    0.0000 O   0  0  0  0  0  0  0  0  0  0  0  0
    3.4030   -3.6941    0.0000 O   0  0  0  0  0  0  0  0  0  0  0  0
    5.1350   -6.6941    0.0000 O   0  0  0  0  0  0  0  0  0  0  0  0
    2.5369   -6.1941    0.0000 O   0  0  0  0  0  0  0  0  0  0  0  0
    2.5369   -8.1941    0.0000 O   0  0  0  0  0  0  0  0  0  0  0  0
    4.2690   -9.1941    0.0000 O   0  0  0  0  0  0  0  0  0  0  0  0
    8.5641    4.5061    0.0000 C   0  0  1  0  0  0  0  0  0  0  0  0
    8.5679    5.5061    0.0000 C   0  0  1  0  0  0  0  0  0  0  0  0
    9.4402    2.9612    0.0000 C   0  0  1  0  0  0  0  0  0  0  0  0
    8.5402    2.4369    0.0000 C   0  0  2  0  0  0  0  0  0  0  0  0
    8.5600    7.5754    0.0000 C   0  0  1  0  0  0  0  0  0  0  0  0
    9.4282    4.0028    0.0000 C   0  0  0  0  0  0  0  0  0  0  0  0
    9.4560    7.0442    0.0000 C   0  0  2  0  0  0  0  0  0  0  0  0
    9.4359    6.0027    0.0000 C   0  0  0  0  0  0  0  0  0  0  0  0
    7.6521    4.0028    0.0000 C   0  0  0  0  0  0  0  0  0  0  0  0
    7.6599    6.0164    0.0000 C   0  0  0  0  0  0  0  0  0  0  0  0
    8.5276    1.3520    0.0000 C   0  0  1  0  0  0  0  0  0  0  0  0
    7.6401    2.9612    0.0000 C   0  0  0  0  0  0  0  0  0  0  0  0
    7.6559    7.0580    0.0000 C   0  0  2  0  0  0  0  0  0  0  0  0
   10.3901    2.4369    0.0000 C   0  0  0  0  0  0  0  0  0  0  0  0
   10.4099    7.5611    0.0000 C   0  0  0  0  0  0  0  0  0  0  0  0
    8.5558    8.6604    0.0000 C   0  0  0  0  0  0  0  0  0  0  0  0
    9.4651    0.8059    0.0000 C   0  0  2  0  0  0  0  0  0  0  0  0
    7.5800    4.6835    0.0000 C   0  0  0  0  0  0  0  0  0  0  0  0
   10.4308    8.6459    0.0000 C   0  0  0  0  0  0  0  0  0  0  0  0
    7.5825    5.3363    0.0000 C   0  0  0  0  0  0  0  0  0  0  0  0
   10.4027    1.3520    0.0000 C   0  0  0  0  0  0  0  0  0  0  0  0
   10.2961    4.4994    0.0000 C   0  0  0  0  0  0  0  0  0  0  0  0
   10.3000    5.4994    0.0000 C   0  0  0  0  0  0  0  0  0  0  0  0
   10.3043    3.4645    0.0000 C   0  0  0  0  0  0  0  0  0  0  0  0
    9.4975    9.1992    0.0000 C   0  0  0  0  0  0  0  0  0  0  0  0
    7.6998    8.0854    0.0000 C   0  0  0  0  0  0  0  0  0  0  0  0
    7.5276    1.3597    0.0000 C   0  0  0  0  0  0  0  0  0  0  0  0
    8.0209    0.4898    0.0000 C   0  0  0  0  0  0  0  0  0  0  0  0
   10.9441    9.5041    0.0000 C   0  0  0  0  0  0  0  0  0  0  0  0
   11.4307    8.6305    0.0000 C   0  0  0  0  0  0  0  0  0  0  0  0
    8.5991   -0.6941    0.0000 C   0  0  2  0  0  0  0  0  0  0  0  0
    8.5991   -1.6941    0.0000 C   0  0  1  0  0  0  0  0  0  0  0  0
    7.7331   -2.1941    0.0000 C   0  0  2  0  0  0  0  0  0  0  0  0
    6.8671   -0.6941    0.0000 C   0  0  1  0  0  0  0  0  0  0  0  0
    6.8671   -1.6941    0.0000 C   0  0  2  0  0  0  0  0  0  0  0  0
    6.0010   -0.1941    0.0000 C   0  0  0  0  0  0  0  0  0  0  0  0
   10.3312   -1.6941    0.0000 C   0  0  2  0  0  0  0  0  0  0  0  0
    6.8671   -3.6941    0.0000 C   0  0  2  0  0  0  0  0  0  0  0  0
   11.1972   -2.1941    0.0000 C   0  0  1  0  0  0  0  0  0  0  0  0
    6.8671   -4.6941    0.0000 C   0  0  1  0  0  0  0  0  0  0  0  0
   12.0632   -1.6941    0.0000 C   0  0  2  0  0  0  0  0  0  0  0  0
   11.1972   -0.1941    0.0000 C   0  0  1  0  0  0  0  0  0  0  0  0
   12.0632   -0.6941    0.0000 C   0  0  1  0  0  0  0  0  0  0  0  0
    6.0010   -5.1941    0.0000 C   0  0  2  0  0  0  0  0  0  0  0  0
    5.1350   -3.6941    0.0000 C   0  0  1  0  0  0  0  0  0  0  0  0
    5.1350   -4.6941    0.0000 C   0  0  1  0  0  0  0  0  0  0  0  0
   11.1972    0.8059    0.0000 C   0  0  0  0  0  0  0  0  0  0  0  0
    4.2690   -3.1941    0.0000 C   0  0  0  0  0  0  0  0  0  0  0  0
    4.2690   -6.1941    0.0000 C   0  0  2  0  0  0  0  0  0  0  0  0
    3.4030   -6.6941    0.0000 C   0  0  1  0  0  0  0  0  0  0  0  0
    3.4030   -7.6941    0.0000 C   0  0  1  0  0  0  0  0  0  0  0  0
    5.1350   -7.6941    0.0000 C   0  0  2  0  0  0  0  0  0  0  0  0
    4.2690   -8.1941    0.0000 C   0  0  2  0  0  0  0  0  0  0  0  0
    6.0010   -8.1941    0.0000 C   0  0  0  0  0  0  0  0  0  0  0  0
    7.8008    2.0176    0.0000 H   0  0  0  0  0  0  0  0  0  0  0  0
   10.1820    6.6023    0.0000 H   0  0  0  0  0  0  0  0  0  0  0  0
    7.4498    4.5888    0.0000 H   0  0  0  0  0  0  0  0  0  0  0  0
    7.0401    3.9037    0.0000 H   0  0  0  0  0  0  0  0  0  0  0  0
    7.0486    6.1202    0.0000 H   0  0  0  0  0  0  0  0  0  0  0  0
    7.4531    5.4319    0.0000 H   0  0  0  0  0  0  0  0  0  0  0  0
    7.0305    3.0743    0.0000 H   0  0  0  0  0  0  0  0  0  0  0  0
    7.4243    2.3800    0.0000 H   0  0  0  0  0  0  0  0  0  0  0  0
    7.1195    6.7470    0.0000 H   0  0  0  0  0  0  0  0  0  0  0  0
   11.0022    2.3379    0.0000 H   0  0  0  0  0  0  0  0  0  0  0  0
   10.5924    3.0230    0.0000 H   0  0  0  0  0  0  0  0  0  0  0  0
   10.6076    6.9735    0.0000 H   0  0  0  0  0  0  0  0  0  0  0  0
   11.0227    7.6554    0.0000 H   0  0  0  0  0  0  0  0  0  0  0  0
    8.3445    9.2433    0.0000 H   0  0  0  0  0  0  0  0  0  0  0  0
    7.9453    8.5519    0.0000 H   0  0  0  0  0  0  0  0  0  0  0  0
   10.0027    0.4969    0.0000 H   0  0  0  0  0  0  0  0  0  0  0  0
    7.6900    5.2937    0.0000 H   0  0  0  0  0  0  0  0  0  0  0  0
    6.9698    4.7936    0.0000 H   0  0  0  0  0  0  0  0  0  0  0  0
    7.4699    4.0734    0.0000 H   0  0  0  0  0  0  0  0  0  0  0  0
    7.4772    5.9473    0.0000 H   0  0  0  0  0  0  0  0  0  0  0  0
    6.9715    5.2310    0.0000 H   0  0  0  0  0  0  0  0  0  0  0  0
    7.6877    4.7253    0.0000 H   0  0  0  0  0  0  0  0  0  0  0  0
   10.6185    0.7707    0.0000 H   0  0  0  0  0  0  0  0  0  0  0  0
   11.0123    1.4651    0.0000 H   0  0  0  0  0  0  0  0  0  0  0  0
   10.8319    4.1873    0.0000 H   0  0  0  0  0  0  0  0  0  0  0  0
   10.8381    5.8073    0.0000 H   0  0  0  0  0  0  0  0  0  0  0  0
   10.6164    2.9288    0.0000 H   0  0  0  0  0  0  0  0  0  0  0  0
   10.8400    3.7766    0.0000 H   0  0  0  0  0  0  0  0  0  0  0  0
    9.9922    4.0003    0.0000 H   0  0  0  0  0  0  0  0  0  0  0  0
    9.9003    9.6706    0.0000 H   0  0  0  0  0  0  0  0  0  0  0  0
    9.1020    9.6767    0.0000 H   0  0  0  0  0  0  0  0  0  0  0  0
    7.0905    8.2001    0.0000 H   0  0  0  0  0  0  0  0  0  0  0  0
    7.4810    7.5052    0.0000 H   0  0  0  0  0  0  0  0  0  0  0  0
    7.6400    1.9694    0.0000 H   0  0  0  0  0  0  0  0  0  0  0  0
    6.9467    1.5762    0.0000 H   0  0  0  0  0  0  0  0  0  0  0  0
    7.4864    0.8040    0.0000 H   0  0  0  0  0  0  0  0  0  0  0  0
    7.7068   -0.0447    0.0000 H   0  0  0  0  0  0  0  0  0  0  0  0
    8.5555    0.1757    0.0000 H   0  0  0  0  0  0  0  0  0  0  0  0
   11.4762    9.1859    0.0000 H   0  0  0  0  0  0  0  0  0  0  0  0
   11.2623   10.0362    0.0000 H   0  0  0  0  0  0  0  0  0  0  0  0
   10.4120    9.8224    0.0000 H   0  0  0  0  0  0  0  0  0  0  0  0
   11.4211    8.0106    0.0000 H   0  0  0  0  0  0  0  0  0  0  0  0
   12.0506    8.6209    0.0000 H   0  0  0  0  0  0  0  0  0  0  0  0
   11.4402    9.2504    0.0000 H   0  0  0  0  0  0  0  0  0  0  0  0
    6.2529    7.2480    0.0000 H   0  0  0  0  0  0  0  0  0  0  0  0
    7.1780    9.4015    0.0000 H   0  0  0  0  0  0  0  0  0  0  0  0
    8.5991   -0.0741    0.0000 H   0  0  0  0  0  0  0  0  0  0  0  0
    6.4010    0.5023    0.0000 H   0  0  0  0  0  0  0  0  0  0  0  0
    8.5991   -2.3141    0.0000 H   0  0  0  0  0  0  0  0  0  0  0  0
    7.1962   -2.5041    0.0000 H   0  0  0  0  0  0  0  0  0  0  0  0
    6.8671   -0.0741    0.0000 H   0  0  0  0  0  0  0  0  0  0  0  0
    6.8671   -2.3141    0.0000 H   0  0  0  0  0  0  0  0  0  0  0  0
    6.3110    0.3428    0.0000 H   0  0  0  0  0  0  0  0  0  0  0  0
    5.4641    0.1159    0.0000 H   0  0  0  0  0  0  0  0  0  0  0  0
    5.6910   -0.7311    0.0000 H   0  0  0  0  0  0  0  0  0  0  0  0
   10.3312   -2.3141    0.0000 H   0  0  0  0  0  0  0  0  0  0  0  0
    5.4641   -1.8841    0.0000 H   0  0  0  0  0  0  0  0  0  0  0  0
    7.4040   -4.0041    0.0000 H   0  0  0  0  0  0  0  0  0  0  0  0
   11.7341   -2.5041    0.0000 H   0  0  0  0  0  0  0  0  0  0  0  0
    6.8671   -5.3141    0.0000 H   0  0  0  0  0  0  0  0  0  0  0  0
   12.0632   -2.3141    0.0000 H   0  0  0  0  0  0  0  0  0  0  0  0
   10.6603    0.1159    0.0000 H   0  0  0  0  0  0  0  0  0  0  0  0
   12.6002   -1.0041    0.0000 H   0  0  0  0  0  0  0  0  0  0  0  0
    5.4641   -5.5041    0.0000 H   0  0  0  0  0  0  0  0  0  0  0  0
    5.1350   -3.0741    0.0000 H   0  0  0  0  0  0  0  0  0  0  0  0
    5.1350   -5.3141    0.0000 H   0  0  0  0  0  0  0  0  0  0  0  0
   11.7341   -3.5041    0.0000 H   0  0  0  0  0  0  0  0  0  0  0  0
   10.9851    1.3885    0.0000 H   0  0  0  0  0  0  0  0  0  0  0  0
   10.5866    0.6982    0.0000 H   0  0  0  0  0  0  0  0  0  0  0  0
    7.7331   -5.8141    0.0000 H   0  0  0  0  0  0  0  0  0  0  0  0
   12.9292   -2.8141    0.0000 H   0  0  0  0  0  0  0  0  0  0  0  0
    4.6675   -2.7192    0.0000 H   0  0  0  0  0  0  0  0  0  0  0  0
    3.8705   -2.7192    0.0000 H   0  0  0  0  0  0  0  0  0  0  0  0
   13.4662   -0.5041    0.0000 H   0  0  0  0  0  0  0  0  0  0  0  0
    6.5380   -6.5041    0.0000 H   0  0  0  0  0  0  0  0  0  0  0  0
    3.7320   -5.8841    0.0000 H   0  0  0  0  0  0  0  0  0  0  0  0
   12.6002    0.9959    0.0000 H   0  0  0  0  0  0  0  0  0  0  0  0
    2.8660   -3.3841    0.0000 H   0  0  0  0  0  0  0  0  0  0  0  0
    3.4030   -6.0741    0.0000 H   0  0  0  0  0  0  0  0  0  0  0  0
    3.4030   -8.3141    0.0000 H   0  0  0  0  0  0  0  0  0  0  0  0
    5.6720   -7.3841    0.0000 H   0  0  0  0  0  0  0  0  0  0  0  0
    4.8059   -8.5041    0.0000 H   0  0  0  0  0  0  0  0  0  0  0  0
    2.0000   -6.5041    0.0000 H   0  0  0  0  0  0  0  0  0  0  0  0
    5.6910   -8.7311    0.0000 H   0  0  0  0  0  0  0  0  0  0  0  0
    6.5380   -8.5041    0.0000 H   0  0  0  0  0  0  0  0  0  0  0  0
    6.3110   -7.6572    0.0000 H   0  0  0  0  0  0  0  0  0  0  0  0
    2.5369   -8.8141    0.0000 H   0  0  0  0  0  0  0  0  0  0  0  0
    4.8059   -9.5041    0.0000 H   0  0  0  0  0  0  0  0  0  0  0  0
 35  1  1  6  0  0  0
  1121  1  0  0  0  0
 39  2  1  6  0  0  0
 53  2  1  1  0  0  0
  3 48  1  0  0  0  0
  3122  1  0  0  0  0
  4 49  1  0  0  0  0
  4124  1  0  0  0  0
  5 53  1  0  0  0  0
  5 56  1  0  0  0  0
 54  6  1  6  0  0  0
 59  6  1  6  0  0  0
 55  7  1  1  0  0  0
 60  7  1  1  0  0  0
 57  8  1  1  0  0  0
  8133  1  0  0  0  0
  9 59  1  0  0  0  0
  9 64  1  0  0  0  0
 10 60  1  0  0  0  0
 10 67  1  0  0  0  0
 61 11  1  1  0  0  0
 11143  1  0  0  0  0
 62 12  1  6  0  0  0
 12146  1  0  0  0  0
 63 13  1  6  0  0  0
 13147  1  0  0  0  0
 65 14  1  1  0  0  0
 14150  1  0  0  0  0
 66 15  1  1  0  0  0
 15151  1  0  0  0  0
 68 16  1  6  0  0  0
 71 16  1  6  0  0  0
 17 69  1  0  0  0  0
 17153  1  0  0  0  0
 18 70  1  0  0  0  0
 18154  1  0  0  0  0
 19 71  1  0  0  0  0
 19 74  1  0  0  0  0
 72 20  1  1  0  0  0
 20159  1  0  0  0  0
 73 21  1  1  0  0  0
 21163  1  0  0  0  0
 75 22  1  6  0  0  0
 22164  1  0  0  0  0
 23 24  1  0  0  0  0
 23 28  1  0  0  0  0
 23 31  1  0  0  0  0
 23 40  1  6  0  0  0
 24 30  1  0  0  0  0
 24 32  1  0  0  0  0
 24 42  1  1  0  0  0
 25 26  1  0  0  0  0
 25 28  1  0  0  0  0
 25 36  1  0  0  0  0
 25 46  1  6  0  0  0
 26 33  1  0  0  0  0
 26 34  1  0  0  0  0
 26 77  1  1  0  0  0
 27 29  1  0  0  0  0
 27 35  1  0  0  0  0
 27 38  1  0  0  0  0
 27 48  1  6  0  0  0
 28 44  2  0  0  0  0
 29 30  1  0  0  0  0
 29 37  1  0  0  0  0
 29 78  1  6  0  0  0
 30 45  2  0  0  0  0
 31 34  1  0  0  0  0
 31 79  1  0  0  0  0
 31 80  1  0  0  0  0
 32 35  1  0  0  0  0
 32 81  1  0  0  0  0
 32 82  1  0  0  0  0
 33 39  1  0  0  0  0
 33 49  1  0  0  0  0
 33 50  1  6  0  0  0
 34 83  1  0  0  0  0
 34 84  1  0  0  0  0
 35 85  1  0  0  0  0
 36 43  1  0  0  0  0
 36 86  1  0  0  0  0
 36 87  1  0  0  0  0
 37 41  1  0  0  0  0
 37 88  1  0  0  0  0
 37 89  1  0  0  0  0
 38 47  1  0  0  0  0
 38 90  1  0  0  0  0
 38 91  1  0  0  0  0
 39 43  1  0  0  0  0
 39 92  1  0  0  0  0
 40 93  1  0  0  0  0
 40 94  1  0  0  0  0
 40 95  1  0  0  0  0
 41 47  1  0  0  0  0
 41 51  1  0  0  0  0
 41 52  1  0  0  0  0
 42 96  1  0  0  0  0
 42 97  1  0  0  0  0
 42 98  1  0  0  0  0
 43 99  1  0  0  0  0
 43100  1  0  0  0  0
 44 45  1  0  0  0  0
 44101  1  0  0  0  0
 45102  1  0  0  0  0
 46103  1  0  0  0  0
 46104  1  0  0  0  0
 46105  1  0  0  0  0
 47106  1  0  0  0  0
 47107  1  0  0  0  0
 48108  1  0  0  0  0
 48109  1  0  0  0  0
 49110  1  0  0  0  0
 49111  1  0  0  0  0
 50112  1  0  0  0  0
 50113  1  0  0  0  0
 50114  1  0  0  0  0
 51115  1  0  0  0  0
 51116  1  0  0  0  0
 51117  1  0  0  0  0
 52118  1  0  0  0  0
 52119  1  0  0  0  0
 52120  1  0  0  0  0
 53 54  1  0  0  0  0
 53123  1  0  0  0  0
 54 55  1  0  0  0  0
 54125  1  0  0  0  0
 55 57  1  0  0  0  0
 55126  1  0  0  0  0
 56 57  1  0  0  0  0
 56 58  1  1  0  0  0
 56127  1  0  0  0  0
 57128  1  0  0  0  0
 58129  1  0  0  0  0
 58130  1  0  0  0  0
 58131  1  0  0  0  0
 59 61  1  0  0  0  0
 59132  1  0  0  0  0
 60 62  1  0  0  0  0
 60134  1  0  0  0  0
 61 63  1  0  0  0  0
 61135  1  0  0  0  0
 62 66  1  0  0  0  0
 62136  1  0  0  0  0
 63 65  1  0  0  0  0
 63137  1  0  0  0  0
 64 65  1  0  0  0  0
 64 69  1  6  0  0  0
 64138  1  0  0  0  0
 65139  1  0  0  0  0
 66 68  1  0  0  0  0
 66140  1  0  0  0  0
 67 68  1  0  0  0  0
 67 70  1  1  0  0  0
 67141  1  0  0  0  0
 68142  1  0  0  0  0
 69144  1  0  0  0  0
 69145  1  0  0  0  0
 70148  1  0  0  0  0
 70149  1  0  0  0  0
 71 72  1  0  0  0  0
 71152  1  0  0  0  0
 72 73  1  0  0  0  0
 72155  1  0  0  0  0
 73 75  1  0  0  0  0
 73156  1  0  0  0  0
 74 75  1  0  0  0  0
 74 76  1  1  0  0  0
 74157  1  0  0  0  0
 75158  1  0  0  0  0
 76160  1  0  0  0  0
 76161  1  0  0  0  0
 76162  1  0  0  0  0
M  END
> <PUBCHEM_COMPOUND_CID>
44566640

> <PUBCHEM_COMPOUND_CANONICALIZED>
1

> <PUBCHEM_CACTVS_COMPLEXITY>
2110

> <PUBCHEM_CACTVS_HBOND_ACCEPTOR>
22

> <PUBCHEM_CACTVS_HBOND_DONOR>
14

> <PUBCHEM_CACTVS_ROTATABLE_BOND>
12

> <PUBCHEM_CACTVS_SUBSKEYS>
AAADcfB8PgAAAAAAAAAAAAAAAAAAAAAAAAA0aNGiAAAAAADAAAAAGgAACAAADxSwgAMCCAAABgCAAiBCAAAAAAAgAAAACAAAAAgZEAIAAQAiQAAFgAAPgAPA4PwPgAAAAAAAAADAAAYAADAAAAAAAAAAAA==

> <PUBCHEM_IUPAC_OPENEYE_NAME>
(2S,3R,4R,5R,6S)-2-[(2R,3S,4R,5R,6S)-6-[(2R,3R,4S,5S,6R)-2-[[(3S,4R,4aR,6aS,6bR,8S,8aS,12aS,14bS)-8-hydroxy-4,8a-bis(hydroxymethyl)-4,6a,6b,11,11,14b-hexamethyl-1,2,3,4a,5,6,7,8,9,10,12,12a-dodecahydropicen-3-yl]oxy]-5-hydroxy-6-methyl-3-[(2S,3R,4S,5S,6R)-3,4,5-trihydroxy-6-(hydroxymethyl)tetrahydropyran-2-yl]oxy-tetrahydropyran-4-yl]oxy-4,5-dihydroxy-2-(hydroxymethyl)tetrahydropyran-3-yl]oxy-6-methyl-tetrahydropyran-3,4,5-triol

> <PUBCHEM_IUPAC_CAS_NAME>
(2S,3R,4R,5R,6S)-2-[[(2R,3S,4R,5R,6S)-6-[[(2R,3R,4S,5S,6R)-2-[[(3S,4R,4aR,6aS,6bR,8S,8aS,12aS,14bS)-8-hydroxy-4,8a-bis(hydroxymethyl)-4,6a,6b,11,11,14b-hexamethyl-1,2,3,4a,5,6,7,8,9,10,12,12a-dodecahydropicen-3-yl]oxy]-5-hydroxy-6-methyl-3-[[(2S,3R,4S,5S,6R)-3,4,5-trihydroxy-6-(hydroxymethyl)-2-oxanyl]oxy]-4-oxanyl]oxy]-4,5-dihydroxy-2-(hydroxymethyl)-3-oxanyl]oxy]-6-methyloxane-3,4,5-triol

> <PUBCHEM_IUPAC_NAME_MARKUP>
(2<I>S</I>,3<I>R</I>,4<I>R</I>,5<I>R</I>,6<I>S</I>)-2-[(2<I>R</I>,3<I>S</I>,4<I>R</I>,5<I>R</I>,6<I>S</I>)-6-[(2<I>R</I>,3<I>R</I>,4<I>S</I>,5<I>S</I>,6<I>R</I>)-2-[[(3<I>S</I>,4<I>R</I>,4<I>a</I><I>R</I>,6<I>a</I><I>S</I>,6<I>b</I><I>R</I>,8<I>S</I>,8<I>a</I><I>S</I>,12<I>a</I><I>S</I>,14<I>b</I><I>S</I>)-8-hydroxy-4,8<I>a</I>-bis(hydroxymethyl)-4,6<I>a</I>,6<I>b</I>,11,11,14<I>b</I>-hexamethyl-1,2,3,4<I>a</I>,5,6,7,8,9,10,12,12<I>a</I>-dodecahydropicen-3-yl]oxy]-5-hydroxy-6-methyl-3-[(2<I>S</I>,3<I>R</I>,4<I>S</I>,5<I>S</I>,6<I>R</I>)-3,4,5-trihydroxy-6-(hydroxymethyl)oxan-2-yl]oxyoxan-4-yl]oxy-4,5-dihydroxy-2-(hydroxymethyl)oxan-3-yl]oxy-6-methyloxane-3,4,5-triol

> <PUBCHEM_IUPAC_NAME>
(2S,3R,4R,5R,6S)-2-[(2R,3S,4R,5R,6S)-6-[(2R,3R,4S,5S,6R)-2-[[(3S,4R,4aR,6aS,6bR,8S,8aS,12aS,14bS)-8-hydroxy-4,8a-bis(hydroxymethyl)-4,6a,6b,11,11,14b-hexamethyl-1,2,3,4a,5,6,7,8,9,10,12,12a-dodecahydropicen-3-yl]oxy]-5-hydroxy-6-methyl-3-[(2S,3R,4S,5S,6R)-3,4,5-trihydroxy-6-(hydroxymethyl)oxan-2-yl]oxyoxan-4-yl]oxy-4,5-dihydroxy-2-(hydroxymethyl)oxan-3-yl]oxy-6-methyloxane-3,4,5-triol

> <PUBCHEM_IUPAC_SYSTEMATIC_NAME>
(2S,3R,4R,5R,6S)-2-[(2R,3S,4R,5R,6S)-6-[(2R,3R,4S,5S,6R)-2-[[(3S,4R,4aR,6aS,6bR,8S,8aS,12aS,14bS)-4,8a-bis(hydroxymethyl)-4,6a,6b,11,11,14b-hexamethyl-8-oxidanyl-1,2,3,4a,5,6,7,8,9,10,12,12a-dodecahydropicen-3-yl]oxy]-3-[(2S,3R,4S,5S,6R)-6-(hydroxymethyl)-3,4,5-tris(oxidanyl)oxan-2-yl]oxy-6-methyl-5-oxidanyl-oxan-4-yl]oxy-2-(hydroxymethyl)-4,5-bis(oxidanyl)oxan-3-yl]oxy-6-methyl-oxane-3,4,5-triol

> <PUBCHEM_IUPAC_TRADITIONAL_NAME>
(2S,3R,4R,5R,6S)-2-[(2R,3S,4R,5R,6S)-6-[(2R,3R,4S,5S,6R)-2-[[(3S,4R,4aR,6aS,6bR,8S,8aS,12aS,14bS)-8-hydroxy-4,6a,6b,11,11,14b-hexamethyl-4,8a-dimethylol-1,2,3,4a,5,6,7,8,9,10,12,12a-dodecahydropicen-3-yl]oxy]-5-hydroxy-6-methyl-3-[(2S,3R,4S,5S,6R)-3,4,5-trihydroxy-6-methylol-tetrahydropyran-2-yl]oxy-tetrahydropyran-4-yl]oxy-4,5-dihydroxy-2-methylol-tetrahydropyran-3-yl]oxy-6-methyl-tetrahydropyran-3,4,5-triol

> <PUBCHEM_IUPAC_INCHI>
InChI=1S/C54H88O22/c1-23-33(60)36(63)39(66)45(69-23)74-42-28(20-56)72-47(41(68)38(42)65)75-43-34(61)24(2)70-48(44(43)76-46-40(67)37(64)35(62)27(19-55)71-46)73-32-12-13-50(5)29(51(32,6)21-57)11-14-52(7)30(50)10-9-25-26-17-49(3,4)15-16-54(26,22-58)31(59)18-53(25,52)8/h9-10,23-24,26-29,31-48,55-68H,11-22H2,1-8H3/t23-,24+,26-,27+,28+,29+,31-,32-,33-,34-,35+,36+,37-,38+,39+,40+,41+,42+,43-,44+,45-,46-,47-,48-,50-,51-,52+,53+,54+/m0/s1

> <PUBCHEM_IUPAC_INCHIKEY>
NWQQCEBYZYQXIQ-MXADEGCQSA-N

> <PUBCHEM_XLOGP3_AA>
-0.5

> <PUBCHEM_EXACT_MASS>
1088.576724

> <PUBCHEM_MOLECULAR_FORMULA>
C54H88O22

> <PUBCHEM_MOLECULAR_WEIGHT>
1089.3

> <PUBCHEM_OPENEYE_CAN_SMILES>
CC1C(C(C(C(O1)OC2C(OC(C(C2O)O)OC3C(C(OC(C3OC4C(C(C(C(O4)CO)O)O)O)OC5CCC6(C(C5(C)CO)CCC7(C6=CC=C8C7(CC(C9(C8CC(CC9)(C)C)CO)O)C)C)C)C)O)CO)O)O)O

> <PUBCHEM_OPENEYE_ISO_SMILES>
C[C@H]1[C@@H]([C@H]([C@H]([C@@H](O1)O[C@@H]2[C@H](O[C@H]([C@@H]([C@H]2O)O)O[C@H]3[C@H]([C@H](O[C@H]([C@@H]3O[C@H]4[C@@H]([C@H]([C@@H]([C@H](O4)CO)O)O)O)O[C@H]5CC[C@]6([C@H]([C@]5(C)CO)CC[C@@]7(C6=CC=C8[C@]7(C[C@@H]([C@@]9([C@H]8CC(CC9)(C)C)CO)O)C)C)C)C)O)CO)O)O)O

> <PUBCHEM_CACTVS_TPSA>
357

> <PUBCHEM_MONOISOTOPIC_WEIGHT>
1088.576724

> <PUBCHEM_TOTAL_CHARGE>
0

> <PUBCHEM_HEAVY_ATOM_COUNT>
76

> <PUBCHEM_ATOM_DEF_STEREO_COUNT>
29

> <PUBCHEM_ATOM_UDEF_STEREO_COUNT>
0

> <PUBCHEM_BOND_DEF_STEREO_COUNT>
0

> <PUBCHEM_BOND_UDEF_STEREO_COUNT>
0

> <PUBCHEM_ISOTOPIC_ATOM_COUNT>
0

> <PUBCHEM_COMPONENT_COUNT>
1

> <PUBCHEM_CACTVS_TAUTO_COUNT>
-1

> <PUBCHEM_COORDINATE_TYPE>
1
5
255

> <PUBCHEM_BONDANNOTATIONS>
35  1  6
61  11  5
62  12  6
63  13  6
65  14  5
66  15  5
68  16  6
71  16  6
39  2  6
53  2  5
72  20  5
73  21  5
75  22  6
23  40  6
24  42  5
25  46  6
26  77  5
27  48  6
29  78  6
33  50  6
56  58  5
54  6  6
59  6  6
64  69  6
67  70  5
55  7  5
60  7  5
74  76  5
57  8  5

$$$$
