16109776
  -OEChem-09092004242D

160169  0     1  0  0  0  0  0999 V2000
   12.9046    3.3617    0.0000 O   0  0  0  0  0  0  0  0  0  0  0  0
   15.0324    2.2535    0.0000 O   0  0  0  0  0  0  0  0  0  0  0  0
   14.6961    6.6920    0.0000 O   0  0  0  0  0  0  0  0  0  0  0  0
    6.8671    0.6180    0.0000 O   0  0  0  0  0  0  0  0  0  0  0  0
    7.7331   -0.8820    0.0000 O   0  0  0  0  0  0  0  0  0  0  0  0
    5.1350   -0.3820    0.0000 O   0  0  0  0  0  0  0  0  0  0  0  0
    5.1350   -2.3820    0.0000 O   0  0  0  0  0  0  0  0  0  0  0  0
    6.8671   -3.3820    0.0000 O   0  0  0  0  0  0  0  0  0  0  0  0
    6.0010    1.1180    0.0000 O   0  0  0  0  0  0  0  0  0  0  0  0
    3.4030    0.6180    0.0000 O   0  0  0  0  0  0  0  0  0  0  0  0
    5.1350   -3.3820    0.0000 O   0  0  0  0  0  0  0  0  0  0  0  0
    3.4030    2.6180    0.0000 O   0  0  0  0  0  0  0  0  0  0  0  0
    6.8671   -5.3820    0.0000 O   0  0  0  0  0  0  0  0  0  0  0  0
    5.1350    3.6180    0.0000 O   0  0  0  0  0  0  0  0  0  0  0  0
    5.1350   -6.3820    0.0000 O   0  0  0  0  0  0  0  0  0  0  0  0
    6.8671    3.6180    0.0000 O   0  0  0  0  0  0  0  0  0  0  0  0
    3.4030   -5.3820    0.0000 O   0  0  0  0  0  0  0  0  0  0  0  0
    7.7331   -3.8820    0.0000 O   0  0  0  0  0  0  0  0  0  0  0  0
    2.5369   -3.8820    0.0000 O   0  0  0  0  0  0  0  0  0  0  0  0
    8.5991   -6.3820    0.0000 O   0  0  0  0  0  0  0  0  0  0  0  0
   10.3312   -5.3820    0.0000 O   0  0  0  0  0  0  0  0  0  0  0  0
   10.3312   -3.3820    0.0000 O   0  0  0  0  0  0  0  0  0  0  0  0
   12.4363    2.7635    0.0000 C   0  0  2  0  0  0  0  0  0  0  0  0
   12.4401    3.7635    0.0000 C   0  0  2  0  0  0  0  0  0  0  0  0
   11.5403    2.2323    0.0000 C   0  0  1  0  0  0  0  0  0  0  0  0
   13.3081    4.2602    0.0000 C   0  0  1  0  0  0  0  0  0  0  0  0
   10.6362    2.7496    0.0000 C   0  0  1  0  0  0  0  0  0  0  0  0
   14.1722    3.7568    0.0000 C   0  0  2  0  0  0  0  0  0  0  0  0
    9.6903    2.2180    0.0000 C   0  0  2  0  0  0  0  0  0  0  0  0
   13.3004    2.2602    0.0000 C   0  0  0  0  0  0  0  0  0  0  0  0
   11.5482    4.3016    0.0000 C   0  0  0  0  0  0  0  0  0  0  0  0
   14.1683    2.7568    0.0000 C   0  0  1  0  0  0  0  0  0  0  0  0
   10.6402    3.7912    0.0000 C   0  0  0  0  0  0  0  0  0  0  0  0
    9.6862    1.1330    0.0000 C   0  0  1  0  0  0  0  0  0  0  0  0
   11.5612    1.1475    0.0000 C   0  0  0  0  0  0  0  0  0  0  0  0
   13.7046    3.3586    0.0000 C   0  0  0  0  0  0  0  0  0  0  0  0
   13.2960    5.3017    0.0000 C   0  0  0  0  0  0  0  0  0  0  0  0
   10.6279    0.5942    0.0000 C   0  0  0  0  0  0  0  0  0  0  0  0
   15.0841    4.2602    0.0000 C   0  0  0  0  0  0  0  0  0  0  0  0
   12.7748    1.8225    0.0000 C   0  0  0  0  0  0  0  0  0  0  0  0
   12.1860    1.4687    0.0000 C   0  0  0  0  0  0  0  0  0  0  0  0
    8.7140    0.5567    0.0000 C   0  0  0  0  0  0  0  0  0  0  0  0
    8.7227    2.8019    0.0000 C   0  0  0  0  0  0  0  0  0  0  0  0
   14.1961    5.8260    0.0000 C   0  0  2  0  0  0  0  0  0  0  0  0
   15.0961    5.3017    0.0000 C   0  0  0  0  0  0  0  0  0  0  0  0
    9.6942    3.2180    0.0000 C   0  0  0  0  0  0  0  0  0  0  0  0
    7.7331    1.1180    0.0000 C   0  0  2  0  0  0  0  0  0  0  0  0
    7.7374    2.2481    0.0000 C   0  0  0  0  0  0  0  0  0  0  0  0
    9.2207   -0.3055    0.0000 C   0  0  0  0  0  0  0  0  0  0  0  0
    8.2207   -0.3132    0.0000 C   0  0  0  0  0  0  0  0  0  0  0  0
   13.6961    6.6920    0.0000 C   0  0  0  0  0  0  0  0  0  0  0  0
    6.8671   -0.3820    0.0000 C   0  0  2  0  0  0  0  0  0  0  0  0
    6.0010   -0.8820    0.0000 C   0  0  1  0  0  0  0  0  0  0  0  0
    6.0010   -1.8820    0.0000 C   0  0  2  0  0  0  0  0  0  0  0  0
    7.7331   -1.8820    0.0000 C   0  0  0  0  0  0  0  0  0  0  0  0
    6.8671   -2.3820    0.0000 C   0  0  2  0  0  0  0  0  0  0  0  0
    5.1350    0.6180    0.0000 C   0  0  2  0  0  0  0  0  0  0  0  0
    4.2690    1.1180    0.0000 C   0  0  1  0  0  0  0  0  0  0  0  0
    6.0010   -3.8820    0.0000 C   0  0  2  0  0  0  0  0  0  0  0  0
    4.2690    2.1180    0.0000 C   0  0  2  0  0  0  0  0  0  0  0  0
    6.0010    2.1180    0.0000 C   0  0  1  0  0  0  0  0  0  0  0  0
    5.1350    2.6180    0.0000 C   0  0  1  0  0  0  0  0  0  0  0  0
    6.0010   -4.8820    0.0000 C   0  0  1  0  0  0  0  0  0  0  0  0
    5.1350   -5.3820    0.0000 C   0  0  2  0  0  0  0  0  0  0  0  0
    4.2690   -3.8820    0.0000 C   0  0  1  0  0  0  0  0  0  0  0  0
    6.8671    2.6180    0.0000 C   0  0  0  0  0  0  0  0  0  0  0  0
    4.2690   -4.8820    0.0000 C   0  0  1  0  0  0  0  0  0  0  0  0
    3.4030   -3.3820    0.0000 C   0  0  0  0  0  0  0  0  0  0  0  0
    7.7331   -4.8820    0.0000 C   0  0  2  0  0  0  0  0  0  0  0  0
    8.5991   -5.3820    0.0000 C   0  0  1  0  0  0  0  0  0  0  0  0
    9.4651   -4.8820    0.0000 C   0  0  1  0  0  0  0  0  0  0  0  0
    8.5991   -3.3820    0.0000 C   0  0  2  0  0  0  0  0  0  0  0  0
    9.4651   -3.8820    0.0000 C   0  0  2  0  0  0  0  0  0  0  0  0
    8.5991   -2.3820    0.0000 C   0  0  0  0  0  0  0  0  0  0  0  0
   12.5736    4.6880    0.0000 H   0  0  0  0  0  0  0  0  0  0  0  0
   11.3723    3.1746    0.0000 H   0  0  0  0  0  0  0  0  0  0  0  0
   12.9000    1.7868    0.0000 H   0  0  0  0  0  0  0  0  0  0  0  0
   13.6970    1.7837    0.0000 H   0  0  0  0  0  0  0  0  0  0  0  0
   11.9546    4.7698    0.0000 H   0  0  0  0  0  0  0  0  0  0  0  0
   11.1565    4.7821    0.0000 H   0  0  0  0  0  0  0  0  0  0  0  0
   14.1659    2.1368    0.0000 H   0  0  0  0  0  0  0  0  0  0  0  0
   10.4334    4.3757    0.0000 H   0  0  0  0  0  0  0  0  0  0  0  0
   10.0289    3.6875    0.0000 H   0  0  0  0  0  0  0  0  0  0  0  0
    9.6927    0.2831    0.0000 H   0  0  0  0  0  0  0  0  0  0  0  0
   11.7814    0.5679    0.0000 H   0  0  0  0  0  0  0  0  0  0  0  0
   12.1699    1.2653    0.0000 H   0  0  0  0  0  0  0  0  0  0  0  0
   13.5267    2.7647    0.0000 H   0  0  0  0  0  0  0  0  0  0  0  0
   14.2238    3.0198    0.0000 H   0  0  0  0  0  0  0  0  0  0  0  0
   13.0802    5.8829    0.0000 H   0  0  0  0  0  0  0  0  0  0  0  0
   12.6864    5.1886    0.0000 H   0  0  0  0  0  0  0  0  0  0  0  0
   10.2324    0.1167    0.0000 H   0  0  0  0  0  0  0  0  0  0  0  0
   11.0307    0.1228    0.0000 H   0  0  0  0  0  0  0  0  0  0  0  0
   15.2864    3.6741    0.0000 H   0  0  0  0  0  0  0  0  0  0  0  0
   15.6961    4.3592    0.0000 H   0  0  0  0  0  0  0  0  0  0  0  0
   12.1913    1.6127    0.0000 H   0  0  0  0  0  0  0  0  0  0  0  0
   12.9846    1.2391    0.0000 H   0  0  0  0  0  0  0  0  0  0  0  0
   13.3582    2.0324    0.0000 H   0  0  0  0  0  0  0  0  0  0  0  0
   11.7126    1.0684    0.0000 H   0  0  0  0  0  0  0  0  0  0  0  0
   12.5864    0.9953    0.0000 H   0  0  0  0  0  0  0  0  0  0  0  0
   12.6594    1.8691    0.0000 H   0  0  0  0  0  0  0  0  0  0  0  0
    9.1291    3.2701    0.0000 H   0  0  0  0  0  0  0  0  0  0  0  0
    8.3309    3.2824    0.0000 H   0  0  0  0  0  0  0  0  0  0  0  0
   15.7057    5.1886    0.0000 H   0  0  0  0  0  0  0  0  0  0  0  0
   15.3119    5.8829    0.0000 H   0  0  0  0  0  0  0  0  0  0  0  0
   10.3142    3.2156    0.0000 H   0  0  0  0  0  0  0  0  0  0  0  0
    9.6966    3.8380    0.0000 H   0  0  0  0  0  0  0  0  0  0  0  0
    9.0742    3.2204    0.0000 H   0  0  0  0  0  0  0  0  0  0  0  0
    7.1968    1.4290    0.0000 H   0  0  0  0  0  0  0  0  0  0  0  0
    7.5306    2.8326    0.0000 H   0  0  0  0  0  0  0  0  0  0  0  0
    7.1262    2.1444    0.0000 H   0  0  0  0  0  0  0  0  0  0  0  0
   15.0300    1.6335    0.0000 H   0  0  0  0  0  0  0  0  0  0  0  0
    8.6861   -0.6196    0.0000 H   0  0  0  0  0  0  0  0  0  0  0  0
    9.5348   -0.8400    0.0000 H   0  0  0  0  0  0  0  0  0  0  0  0
    9.7552    0.0087    0.0000 H   0  0  0  0  0  0  0  0  0  0  0  0
    7.6814   -0.0073    0.0000 H   0  0  0  0  0  0  0  0  0  0  0  0
    7.9148   -0.8525    0.0000 H   0  0  0  0  0  0  0  0  0  0  0  0
    8.7600   -0.6190    0.0000 H   0  0  0  0  0  0  0  0  0  0  0  0
   14.2330    7.0020    0.0000 H   0  0  0  0  0  0  0  0  0  0  0  0
   13.3861    7.2290    0.0000 H   0  0  0  0  0  0  0  0  0  0  0  0
   13.1591    6.3820    0.0000 H   0  0  0  0  0  0  0  0  0  0  0  0
   15.3161    6.6920    0.0000 H   0  0  0  0  0  0  0  0  0  0  0  0
    6.3301   -0.0720    0.0000 H   0  0  0  0  0  0  0  0  0  0  0  0
    6.0010   -0.2620    0.0000 H   0  0  0  0  0  0  0  0  0  0  0  0
    6.0010   -2.5020    0.0000 H   0  0  0  0  0  0  0  0  0  0  0  0
    7.9451   -2.4646    0.0000 H   0  0  0  0  0  0  0  0  0  0  0  0
    8.3437   -1.7744    0.0000 H   0  0  0  0  0  0  0  0  0  0  0  0
    7.4040   -2.6920    0.0000 H   0  0  0  0  0  0  0  0  0  0  0  0
    4.5981    0.3080    0.0000 H   0  0  0  0  0  0  0  0  0  0  0  0
    4.5981   -2.0720    0.0000 H   0  0  0  0  0  0  0  0  0  0  0  0
    3.7320    1.4280    0.0000 H   0  0  0  0  0  0  0  0  0  0  0  0
    6.0010   -3.2620    0.0000 H   0  0  0  0  0  0  0  0  0  0  0  0
    4.2690    2.7380    0.0000 H   0  0  0  0  0  0  0  0  0  0  0  0
    6.5380    1.8080    0.0000 H   0  0  0  0  0  0  0  0  0  0  0  0
    5.6720    2.9280    0.0000 H   0  0  0  0  0  0  0  0  0  0  0  0
    6.0010   -5.5020    0.0000 H   0  0  0  0  0  0  0  0  0  0  0  0
    2.8660    0.9280    0.0000 H   0  0  0  0  0  0  0  0  0  0  0  0
    4.5981   -5.6920    0.0000 H   0  0  0  0  0  0  0  0  0  0  0  0
    4.2690   -3.2620    0.0000 H   0  0  0  0  0  0  0  0  0  0  0  0
    7.0791    2.0354    0.0000 H   0  0  0  0  0  0  0  0  0  0  0  0
    7.4776    2.7256    0.0000 H   0  0  0  0  0  0  0  0  0  0  0  0
    4.2690   -5.5020    0.0000 H   0  0  0  0  0  0  0  0  0  0  0  0
    3.4030    3.2380    0.0000 H   0  0  0  0  0  0  0  0  0  0  0  0
    5.6720    3.9280    0.0000 H   0  0  0  0  0  0  0  0  0  0  0  0
    3.8015   -2.9071    0.0000 H   0  0  0  0  0  0  0  0  0  0  0  0
    3.0044   -2.9071    0.0000 H   0  0  0  0  0  0  0  0  0  0  0  0
    7.1962   -4.5720    0.0000 H   0  0  0  0  0  0  0  0  0  0  0  0
    4.5981   -6.6920    0.0000 H   0  0  0  0  0  0  0  0  0  0  0  0
    7.4040    3.9280    0.0000 H   0  0  0  0  0  0  0  0  0  0  0  0
    3.4030   -6.0020    0.0000 H   0  0  0  0  0  0  0  0  0  0  0  0
    8.0622   -5.6920    0.0000 H   0  0  0  0  0  0  0  0  0  0  0  0
    2.0000   -3.5720    0.0000 H   0  0  0  0  0  0  0  0  0  0  0  0
    9.4651   -5.5020    0.0000 H   0  0  0  0  0  0  0  0  0  0  0  0
    8.0622   -3.0720    0.0000 H   0  0  0  0  0  0  0  0  0  0  0  0
   10.0021   -4.1920    0.0000 H   0  0  0  0  0  0  0  0  0  0  0  0
    9.1360   -6.6920    0.0000 H   0  0  0  0  0  0  0  0  0  0  0  0
    9.2191   -2.3820    0.0000 H   0  0  0  0  0  0  0  0  0  0  0  0
    8.5991   -1.7620    0.0000 H   0  0  0  0  0  0  0  0  0  0  0  0
    7.9791   -2.3820    0.0000 H   0  0  0  0  0  0  0  0  0  0  0  0
   10.8681   -5.0720    0.0000 H   0  0  0  0  0  0  0  0  0  0  0  0
   10.8681   -3.6920    0.0000 H   0  0  0  0  0  0  0  0  0  0  0  0
  1 24  1  0  0  0  0
  1 36  1  0  0  0  0
 32  2  1  6  0  0  0
  2111  1  0  0  0  0
 44  3  1  1  0  0  0
  3121  1  0  0  0  0
 47  4  1  1  0  0  0
 52  4  1  6  0  0  0
  5 52  1  0  0  0  0
  5 55  1  0  0  0  0
 53  6  1  1  0  0  0
 57  6  1  1  0  0  0
 54  7  1  6  0  0  0
  7129  1  0  0  0  0
 56  8  1  6  0  0  0
 59  8  1  1  0  0  0
  9 57  1  0  0  0  0
  9 61  1  0  0  0  0
 58 10  1  6  0  0  0
 10136  1  0  0  0  0
 11 59  1  0  0  0  0
 11 65  1  0  0  0  0
 60 12  1  1  0  0  0
 12142  1  0  0  0  0
 63 13  1  6  0  0  0
 69 13  1  6  0  0  0
 62 14  1  6  0  0  0
 14143  1  0  0  0  0
 64 15  1  1  0  0  0
 15147  1  0  0  0  0
 16 66  1  0  0  0  0
 16148  1  0  0  0  0
 67 17  1  6  0  0  0
 17149  1  0  0  0  0
 18 69  1  0  0  0  0
 18 72  1  0  0  0  0
 19 68  1  0  0  0  0
 19151  1  0  0  0  0
 70 20  1  1  0  0  0
 20155  1  0  0  0  0
 71 21  1  1  0  0  0
 21159  1  0  0  0  0
 73 22  1  6  0  0  0
 22160  1  0  0  0  0
 23 24  1  0  0  0  0
 23 25  1  0  0  0  0
 23 30  1  0  0  0  0
 23 40  1  6  0  0  0
 24 26  1  0  0  0  0
 24 31  1  1  0  0  0
 25 27  1  0  0  0  0
 25 35  1  0  0  0  0
 25 41  1  1  0  0  0
 26 28  1  0  0  0  0
 26 37  1  0  0  0  0
 26 75  1  1  0  0  0
 27 29  1  0  0  0  0
 27 33  1  0  0  0  0
 27 76  1  6  0  0  0
 28 32  1  0  0  0  0
 28 36  1  0  0  0  0
 28 39  1  1  0  0  0
 29 34  1  0  0  0  0
 29 43  1  0  0  0  0
 29 46  1  1  0  0  0
 30 32  1  0  0  0  0
 30 77  1  0  0  0  0
 30 78  1  0  0  0  0
 31 33  1  0  0  0  0
 31 79  1  0  0  0  0
 31 80  1  0  0  0  0
 32 81  1  0  0  0  0
 33 82  1  0  0  0  0
 33 83  1  0  0  0  0
 34 38  1  0  0  0  0
 34 42  1  0  0  0  0
 34 84  1  6  0  0  0
 35 38  1  0  0  0  0
 35 85  1  0  0  0  0
 35 86  1  0  0  0  0
 36 87  1  0  0  0  0
 36 88  1  0  0  0  0
 37 44  1  0  0  0  0
 37 89  1  0  0  0  0
 37 90  1  0  0  0  0
 38 91  1  0  0  0  0
 38 92  1  0  0  0  0
 39 45  1  0  0  0  0
 39 93  1  0  0  0  0
 39 94  1  0  0  0  0
 40 95  1  0  0  0  0
 40 96  1  0  0  0  0
 40 97  1  0  0  0  0
 41 98  1  0  0  0  0
 41 99  1  0  0  0  0
 41100  1  0  0  0  0
 42 47  1  0  0  0  0
 42 49  1  0  0  0  0
 42 50  1  0  0  0  0
 43 48  1  0  0  0  0
 43101  1  0  0  0  0
 43102  1  0  0  0  0
 44 45  1  0  0  0  0
 44 51  1  0  0  0  0
 45103  1  0  0  0  0
 45104  1  0  0  0  0
 46105  1  0  0  0  0
 46106  1  0  0  0  0
 46107  1  0  0  0  0
 47 48  1  0  0  0  0
 47108  1  0  0  0  0
 48109  1  0  0  0  0
 48110  1  0  0  0  0
 49112  1  0  0  0  0
 49113  1  0  0  0  0
 49114  1  0  0  0  0
 50115  1  0  0  0  0
 50116  1  0  0  0  0
 50117  1  0  0  0  0
 51118  1  0  0  0  0
 51119  1  0  0  0  0
 51120  1  0  0  0  0
 52 53  1  0  0  0  0
 52122  1  0  0  0  0
 53 54  1  0  0  0  0
 53123  1  0  0  0  0
 54 56  1  0  0  0  0
 54124  1  0  0  0  0
 55 56  1  0  0  0  0
 55125  1  0  0  0  0
 55126  1  0  0  0  0
 56127  1  0  0  0  0
 57 58  1  0  0  0  0
 57128  1  0  0  0  0
 58 60  1  0  0  0  0
 58130  1  0  0  0  0
 59 63  1  0  0  0  0
 59131  1  0  0  0  0
 60 62  1  0  0  0  0
 60132  1  0  0  0  0
 61 62  1  0  0  0  0
 61 66  1  1  0  0  0
 61133  1  0  0  0  0
 62134  1  0  0  0  0
 63 64  1  0  0  0  0
 63135  1  0  0  0  0
 64 67  1  0  0  0  0
 64137  1  0  0  0  0
 65 67  1  0  0  0  0
 65 68  1  1  0  0  0
 65138  1  0  0  0  0
 66139  1  0  0  0  0
 66140  1  0  0  0  0
 67141  1  0  0  0  0
 68144  1  0  0  0  0
 68145  1  0  0  0  0
 69 70  1  0  0  0  0
 69146  1  0  0  0  0
 70 71  1  0  0  0  0
 70150  1  0  0  0  0
 71 73  1  0  0  0  0
 71152  1  0  0  0  0
 72 73  1  0  0  0  0
 72 74  1  1  0  0  0
 72153  1  0  0  0  0
 73154  1  0  0  0  0
 74156  1  0  0  0  0
 74157  1  0  0  0  0
 74158  1  0  0  0  0
M  END
> <PUBCHEM_COMPOUND_CID>
16109776

> <PUBCHEM_COMPOUND_CANONICALIZED>
1

> <PUBCHEM_CACTVS_COMPLEXITY>
2010

> <PUBCHEM_CACTVS_HBOND_ACCEPTOR>
22

> <PUBCHEM_CACTVS_HBOND_DONOR>
13

> <PUBCHEM_CACTVS_ROTATABLE_BOND>
10

> <PUBCHEM_CACTVS_SUBSKEYS>
AAADcfB8PgAAAAAAAAAAAAAAAAAAASAAAAA0aNGjBIAAAEjAAAAAGgAACAAAD1SwgAMCCAAABgAAAAAAAAAAAAAAAAAAAAAAAAAREAIAAAAiQAAFAAAHAAHA4PwPgAAAAAAAAADCAAYAADAAAAAAAAAAAA==

> <PUBCHEM_IUPAC_OPENEYE_NAME>
(2S,3R,4R,5R,6S)-2-[(2S,3R,4S,5S,6R)-2-[(3S,4S,5R,6S)-6-[[(1S,2R,4S,5R,8R,10S,13R,14R,17S,18R,20S)-2,20-dihydroxy-4,5,9,9,13,20-hexamethyl-24-oxahexacyclo[15.5.2.01,18.04,17.05,14.08,13]tetracosan-10-yl]oxy]-4-hydroxy-5-[(2S,3R,4S,5S,6R)-3,4,5-trihydroxy-6-(hydroxymethyl)tetrahydropyran-2-yl]oxy-tetrahydropyran-3-yl]oxy-4,5-dihydroxy-6-(hydroxymethyl)tetrahydropyran-3-yl]oxy-6-methyl-tetrahydropyran-3,4,5-triol

> <PUBCHEM_IUPAC_CAS_NAME>
(2S,3R,4R,5R,6S)-2-[[(2S,3R,4S,5S,6R)-2-[[(3S,4S,5R,6S)-6-[[(1S,2R,4S,5R,8R,10S,13R,14R,17S,18R,20S)-2,20-dihydroxy-4,5,9,9,13,20-hexamethyl-24-oxahexacyclo[15.5.2.01,18.04,17.05,14.08,13]tetracosan-10-yl]oxy]-4-hydroxy-5-[[(2S,3R,4S,5S,6R)-3,4,5-trihydroxy-6-(hydroxymethyl)-2-oxanyl]oxy]-3-oxanyl]oxy]-4,5-dihydroxy-6-(hydroxymethyl)-3-oxanyl]oxy]-6-methyloxane-3,4,5-triol

> <PUBCHEM_IUPAC_NAME_MARKUP>
(2<I>S</I>,3<I>R</I>,4<I>R</I>,5<I>R</I>,6<I>S</I>)-2-[(2<I>S</I>,3<I>R</I>,4<I>S</I>,5<I>S</I>,6<I>R</I>)-2-[(3<I>S</I>,4<I>S</I>,5<I>R</I>,6<I>S</I>)-6-[[(1<I>S</I>,2<I>R</I>,4<I>S</I>,5<I>R</I>,8<I>R</I>,10<I>S</I>,13<I>R</I>,14<I>R</I>,17<I>S</I>,18<I>R</I>,20<I>S</I>)-2,20-dihydroxy-4,5,9,9,13,20-hexamethyl-24-oxahexacyclo[15.5.2.0<SUP>1,18</SUP>.0<SUP>4,17</SUP>.0<SUP>5,14</SUP>.0<SUP>8,13</SUP>]tetracosan-10-yl]oxy]-4-hydroxy-5-[(2<I>S</I>,3<I>R</I>,4<I>S</I>,5<I>S</I>,6<I>R</I>)-3,4,5-trihydroxy-6-(hydroxymethyl)oxan-2-yl]oxyoxan-3-yl]oxy-4,5-dihydroxy-6-(hydroxymethyl)oxan-3-yl]oxy-6-methyloxane-3,4,5-triol

> <PUBCHEM_IUPAC_NAME>
(2S,3R,4R,5R,6S)-2-[(2S,3R,4S,5S,6R)-2-[(3S,4S,5R,6S)-6-[[(1S,2R,4S,5R,8R,10S,13R,14R,17S,18R,20S)-2,20-dihydroxy-4,5,9,9,13,20-hexamethyl-24-oxahexacyclo[15.5.2.01,18.04,17.05,14.08,13]tetracosan-10-yl]oxy]-4-hydroxy-5-[(2S,3R,4S,5S,6R)-3,4,5-trihydroxy-6-(hydroxymethyl)oxan-2-yl]oxyoxan-3-yl]oxy-4,5-dihydroxy-6-(hydroxymethyl)oxan-3-yl]oxy-6-methyloxane-3,4,5-triol

> <PUBCHEM_IUPAC_SYSTEMATIC_NAME>
(2S,3R,4R,5R,6S)-2-[(2S,3R,4S,5S,6R)-2-[(3S,4S,5R,6S)-6-[[(1S,2R,4S,5R,8R,10S,13R,14R,17S,18R,20S)-4,5,9,9,13,20-hexamethyl-2,20-bis(oxidanyl)-24-oxahexacyclo[15.5.2.01,18.04,17.05,14.08,13]tetracosan-10-yl]oxy]-5-[(2S,3R,4S,5S,6R)-6-(hydroxymethyl)-3,4,5-tris(oxidanyl)oxan-2-yl]oxy-4-oxidanyl-oxan-3-yl]oxy-6-(hydroxymethyl)-4,5-bis(oxidanyl)oxan-3-yl]oxy-6-methyl-oxane-3,4,5-triol

> <PUBCHEM_IUPAC_TRADITIONAL_NAME>
(2S,3R,4R,5R,6S)-2-[(2S,3R,4S,5S,6R)-2-[(3S,4S,5R,6S)-6-[[(1S,2R,4S,5R,8R,10S,13R,14R,17S,18R,20S)-2,20-dihydroxy-4,5,9,9,13,20-hexamethyl-24-oxahexacyclo[15.5.2.01,18.04,17.05,14.08,13]tetracosan-10-yl]oxy]-4-hydroxy-5-[(2S,3R,4S,5S,6R)-3,4,5-trihydroxy-6-methylol-tetrahydropyran-2-yl]oxy-tetrahydropyran-3-yl]oxy-4,5-dihydroxy-6-methylol-tetrahydropyran-3-yl]oxy-6-methyl-tetrahydropyran-3,4,5-triol

> <PUBCHEM_IUPAC_INCHI>
InChI=1S/C52H86O22/c1-22-31(56)35(60)38(63)42(68-22)74-41-37(62)33(58)24(19-54)70-45(41)71-25-20-66-44(40(34(25)59)73-43-39(64)36(61)32(57)23(18-53)69-43)72-30-10-11-48(5)26(46(30,2)3)8-12-49(6)27(48)9-13-52-28-16-47(4,65)14-15-51(28,21-67-52)29(55)17-50(49,52)7/h22-45,53-65H,8-21H2,1-7H3/t22-,23+,24+,25-,26-,27+,28+,29+,30-,31-,32+,33+,34-,35+,36-,37-,38+,39+,40+,41+,42-,43-,44-,45-,47-,48-,49+,50-,51+,52-/m0/s1

> <PUBCHEM_IUPAC_INCHIKEY>
LZUMOKWHTUFQPN-NLJCTUQTSA-N

> <PUBCHEM_XLOGP3_AA>
-0.9

> <PUBCHEM_EXACT_MASS>
1062.561074

> <PUBCHEM_MOLECULAR_FORMULA>
C52H86O22

> <PUBCHEM_MOLECULAR_WEIGHT>
1063.2

> <PUBCHEM_OPENEYE_CAN_SMILES>
CC1C(C(C(C(O1)OC2C(C(C(OC2OC3COC(C(C3O)OC4C(C(C(C(O4)CO)O)O)O)OC5CCC6(C(C5(C)C)CCC7(C6CCC89C7(CC(C1(C8CC(CC1)(C)O)CO9)O)C)C)C)CO)O)O)O)O)O

> <PUBCHEM_OPENEYE_ISO_SMILES>
C[C@H]1[C@@H]([C@H]([C@H]([C@@H](O1)O[C@@H]2[C@H]([C@@H]([C@H](O[C@H]2O[C@H]3CO[C@H]([C@@H]([C@H]3O)O[C@H]4[C@@H]([C@H]([C@@H]([C@H](O4)CO)O)O)O)O[C@H]5CC[C@@]6([C@H]7CC[C@@]89[C@@H]1C[C@@](CC[C@]1(CO8)[C@@H](C[C@]9([C@@]7(CC[C@H]6C5(C)C)C)C)O)(C)O)C)CO)O)O)O)O)O

> <PUBCHEM_CACTVS_TPSA>
346

> <PUBCHEM_MONOISOTOPIC_WEIGHT>
1062.561074

> <PUBCHEM_TOTAL_CHARGE>
0

> <PUBCHEM_HEAVY_ATOM_COUNT>
74

> <PUBCHEM_ATOM_DEF_STEREO_COUNT>
30

> <PUBCHEM_ATOM_UDEF_STEREO_COUNT>
0

> <PUBCHEM_BOND_DEF_STEREO_COUNT>
0

> <PUBCHEM_BOND_UDEF_STEREO_COUNT>
0

> <PUBCHEM_ISOTOPIC_ATOM_COUNT>
0

> <PUBCHEM_COMPONENT_COUNT>
1

> <PUBCHEM_CACTVS_TAUTO_COUNT>
-1

> <PUBCHEM_COORDINATE_TYPE>
1
5
255

> <PUBCHEM_BONDANNOTATIONS>
58  10  6
60  12  5
63  13  6
69  13  6
62  14  6
64  15  5
67  17  6
32  2  6
70  20  5
71  21  5
73  22  6
23  40  6
24  31  5
25  41  5
26  75  5
27  76  6
28  39  5
29  46  5
44  3  5
34  84  6
47  4  5
52  4  6
53  6  5
57  6  5
61  66  5
65  68  5
54  7  6
72  74  5
56  8  6
59  8  5

$$$$
