16109775
  -OEChem-09092004232D

181191  0     1  0  0  0  0  0999 V2000
   13.7706    4.5932    0.0000 O   0  0  0  0  0  0  0  0  0  0  0  0
   15.8984    3.4850    0.0000 O   0  0  0  0  0  0  0  0  0  0  0  0
    7.7331    1.8495    0.0000 O   0  0  0  0  0  0  0  0  0  0  0  0
   16.5621    7.9236    0.0000 O   0  0  0  0  0  0  0  0  0  0  0  0
    8.5991    0.3495    0.0000 O   0  0  0  0  0  0  0  0  0  0  0  0
    6.0010    0.8495    0.0000 O   0  0  0  0  0  0  0  0  0  0  0  0
    6.0010   -1.1505    0.0000 O   0  0  0  0  0  0  0  0  0  0  0  0
    7.7331   -2.1505    0.0000 O   0  0  0  0  0  0  0  0  0  0  0  0
    6.8671    2.3495    0.0000 O   0  0  0  0  0  0  0  0  0  0  0  0
    6.0010   -2.1505    0.0000 O   0  0  0  0  0  0  0  0  0  0  0  0
    4.2690    1.8495    0.0000 O   0  0  0  0  0  0  0  0  0  0  0  0
    4.2690    3.8495    0.0000 O   0  0  0  0  0  0  0  0  0  0  0  0
    7.7331   -4.1505    0.0000 O   0  0  0  0  0  0  0  0  0  0  0  0
    6.0010    4.8495    0.0000 O   0  0  0  0  0  0  0  0  0  0  0  0
    6.0010   -5.1505    0.0000 O   0  0  0  0  0  0  0  0  0  0  0  0
    7.7331    4.8495    0.0000 O   0  0  0  0  0  0  0  0  0  0  0  0
    4.2690   -4.1505    0.0000 O   0  0  0  0  0  0  0  0  0  0  0  0
    4.2690   -1.1505    0.0000 O   0  0  0  0  0  0  0  0  0  0  0  0
    8.5991   -2.6505    0.0000 O   0  0  0  0  0  0  0  0  0  0  0  0
    4.2690   -5.1505    0.0000 O   0  0  0  0  0  0  0  0  0  0  0  0
    9.4651   -5.1505    0.0000 O   0  0  0  0  0  0  0  0  0  0  0  0
    6.0010   -7.1505    0.0000 O   0  0  0  0  0  0  0  0  0  0  0  0
   11.1972   -4.1505    0.0000 O   0  0  0  0  0  0  0  0  0  0  0  0
   11.1972   -2.1505    0.0000 O   0  0  0  0  0  0  0  0  0  0  0  0
    4.2690   -8.1505    0.0000 O   0  0  0  0  0  0  0  0  0  0  0  0
    2.5369   -7.1505    0.0000 O   0  0  0  0  0  0  0  0  0  0  0  0
    2.5369   -4.1505    0.0000 O   0  0  0  0  0  0  0  0  0  0  0  0
   13.3023    3.9950    0.0000 C   0  0  2  0  0  0  0  0  0  0  0  0
   13.3061    4.9950    0.0000 C   0  0  2  0  0  0  0  0  0  0  0  0
   12.4063    3.4638    0.0000 C   0  0  1  0  0  0  0  0  0  0  0  0
   14.1741    5.4917    0.0000 C   0  0  1  0  0  0  0  0  0  0  0  0
   15.0382    4.9883    0.0000 C   0  0  2  0  0  0  0  0  0  0  0  0
   11.5022    3.9812    0.0000 C   0  0  1  0  0  0  0  0  0  0  0  0
   10.5564    3.4496    0.0000 C   0  0  2  0  0  0  0  0  0  0  0  0
   14.1664    3.4917    0.0000 C   0  0  0  0  0  0  0  0  0  0  0  0
   12.4143    5.5331    0.0000 C   0  0  0  0  0  0  0  0  0  0  0  0
   15.0343    3.9884    0.0000 C   0  0  1  0  0  0  0  0  0  0  0  0
   11.5062    5.0228    0.0000 C   0  0  0  0  0  0  0  0  0  0  0  0
   10.5522    2.3646    0.0000 C   0  0  1  0  0  0  0  0  0  0  0  0
   12.4272    2.3790    0.0000 C   0  0  0  0  0  0  0  0  0  0  0  0
   14.5706    4.5901    0.0000 C   0  0  0  0  0  0  0  0  0  0  0  0
   14.1620    6.5332    0.0000 C   0  0  0  0  0  0  0  0  0  0  0  0
   15.9501    5.4917    0.0000 C   0  0  0  0  0  0  0  0  0  0  0  0
   11.4939    1.8257    0.0000 C   0  0  0  0  0  0  0  0  0  0  0  0
   13.6408    3.0541    0.0000 C   0  0  0  0  0  0  0  0  0  0  0  0
   13.0520    2.7002    0.0000 C   0  0  0  0  0  0  0  0  0  0  0  0
   15.0621    7.0575    0.0000 C   0  0  2  0  0  0  0  0  0  0  0  0
    9.5800    1.7882    0.0000 C   0  0  0  0  0  0  0  0  0  0  0  0
    9.5887    4.0334    0.0000 C   0  0  0  0  0  0  0  0  0  0  0  0
   15.9622    6.5332    0.0000 C   0  0  0  0  0  0  0  0  0  0  0  0
   10.5602    4.4496    0.0000 C   0  0  0  0  0  0  0  0  0  0  0  0
    8.5991    2.3495    0.0000 C   0  0  2  0  0  0  0  0  0  0  0  0
    8.6035    3.4797    0.0000 C   0  0  0  0  0  0  0  0  0  0  0  0
   15.5621    7.9236    0.0000 C   0  0  0  0  0  0  0  0  0  0  0  0
   14.5621    7.9236    0.0000 C   0  0  0  0  0  0  0  0  0  0  0  0
   10.0867    0.9261    0.0000 C   0  0  0  0  0  0  0  0  0  0  0  0
    9.0867    0.9184    0.0000 C   0  0  0  0  0  0  0  0  0  0  0  0
    7.7331    0.8495    0.0000 C   0  0  2  0  0  0  0  0  0  0  0  0
    6.8671    0.3495    0.0000 C   0  0  1  0  0  0  0  0  0  0  0  0
    6.8671   -0.6505    0.0000 C   0  0  2  0  0  0  0  0  0  0  0  0
    8.5991   -0.6505    0.0000 C   0  0  0  0  0  0  0  0  0  0  0  0
    7.7331   -1.1505    0.0000 C   0  0  2  0  0  0  0  0  0  0  0  0
    6.0010    1.8495    0.0000 C   0  0  2  0  0  0  0  0  0  0  0  0
    5.1350    2.3495    0.0000 C   0  0  1  0  0  0  0  0  0  0  0  0
    6.8671   -2.6505    0.0000 C   0  0  2  0  0  0  0  0  0  0  0  0
    5.1350    3.3495    0.0000 C   0  0  2  0  0  0  0  0  0  0  0  0
    6.8671    3.3495    0.0000 C   0  0  1  0  0  0  0  0  0  0  0  0
    6.8671   -3.6505    0.0000 C   0  0  1  0  0  0  0  0  0  0  0  0
    6.0010    3.8495    0.0000 C   0  0  1  0  0  0  0  0  0  0  0  0
    6.0010   -4.1505    0.0000 C   0  0  2  0  0  0  0  0  0  0  0  0
    5.1350   -2.6505    0.0000 C   0  0  1  0  0  0  0  0  0  0  0  0
    7.7331    3.8495    0.0000 C   0  0  0  0  0  0  0  0  0  0  0  0
    5.1350   -3.6505    0.0000 C   0  0  1  0  0  0  0  0  0  0  0  0
    4.2690   -2.1505    0.0000 C   0  0  0  0  0  0  0  0  0  0  0  0
    8.5991   -3.6505    0.0000 C   0  0  2  0  0  0  0  0  0  0  0  0
    5.1350   -5.6505    0.0000 C   0  0  2  0  0  0  0  0  0  0  0  0
    9.4651   -4.1505    0.0000 C   0  0  1  0  0  0  0  0  0  0  0  0
    5.1350   -6.6505    0.0000 C   0  0  1  0  0  0  0  0  0  0  0  0
   10.3312   -3.6505    0.0000 C   0  0  2  0  0  0  0  0  0  0  0  0
    9.4651   -2.1505    0.0000 C   0  0  0  0  0  0  0  0  0  0  0  0
   10.3312   -2.6505    0.0000 C   0  0  1  0  0  0  0  0  0  0  0  0
    4.2690   -7.1505    0.0000 C   0  0  2  0  0  0  0  0  0  0  0  0
    3.4030   -5.6505    0.0000 C   0  0  1  0  0  0  0  0  0  0  0  0
    3.4030   -6.6505    0.0000 C   0  0  1  0  0  0  0  0  0  0  0  0
    2.5369   -5.1505    0.0000 C   0  0  0  0  0  0  0  0  0  0  0  0
   13.4396    5.9195    0.0000 H   0  0  0  0  0  0  0  0  0  0  0  0
   10.7694    4.4118    0.0000 H   0  0  0  0  0  0  0  0  0  0  0  0
   13.7660    3.0183    0.0000 H   0  0  0  0  0  0  0  0  0  0  0  0
   14.5631    3.0152    0.0000 H   0  0  0  0  0  0  0  0  0  0  0  0
   12.8207    6.0014    0.0000 H   0  0  0  0  0  0  0  0  0  0  0  0
   12.0225    6.0137    0.0000 H   0  0  0  0  0  0  0  0  0  0  0  0
   15.5725    4.2963    0.0000 H   0  0  0  0  0  0  0  0  0  0  0  0
   11.2994    5.6073    0.0000 H   0  0  0  0  0  0  0  0  0  0  0  0
   10.8950    4.9190    0.0000 H   0  0  0  0  0  0  0  0  0  0  0  0
   10.5587    1.5146    0.0000 H   0  0  0  0  0  0  0  0  0  0  0  0
   12.6475    1.7995    0.0000 H   0  0  0  0  0  0  0  0  0  0  0  0
   13.0359    2.4969    0.0000 H   0  0  0  0  0  0  0  0  0  0  0  0
   14.3927    3.9962    0.0000 H   0  0  0  0  0  0  0  0  0  0  0  0
   15.0898    4.2513    0.0000 H   0  0  0  0  0  0  0  0  0  0  0  0
   13.9463    7.1145    0.0000 H   0  0  0  0  0  0  0  0  0  0  0  0
   13.5525    6.4201    0.0000 H   0  0  0  0  0  0  0  0  0  0  0  0
   16.1524    4.9056    0.0000 H   0  0  0  0  0  0  0  0  0  0  0  0
   16.5622    5.5907    0.0000 H   0  0  0  0  0  0  0  0  0  0  0  0
   11.0984    1.3482    0.0000 H   0  0  0  0  0  0  0  0  0  0  0  0
   11.8967    1.3544    0.0000 H   0  0  0  0  0  0  0  0  0  0  0  0
   13.0574    2.8442    0.0000 H   0  0  0  0  0  0  0  0  0  0  0  0
   13.8506    2.4707    0.0000 H   0  0  0  0  0  0  0  0  0  0  0  0
   14.2242    3.2639    0.0000 H   0  0  0  0  0  0  0  0  0  0  0  0
   12.5786    2.2999    0.0000 H   0  0  0  0  0  0  0  0  0  0  0  0
   13.4524    2.2269    0.0000 H   0  0  0  0  0  0  0  0  0  0  0  0
   13.5254    3.1006    0.0000 H   0  0  0  0  0  0  0  0  0  0  0  0
    9.9951    4.5016    0.0000 H   0  0  0  0  0  0  0  0  0  0  0  0
    9.1969    4.5139    0.0000 H   0  0  0  0  0  0  0  0  0  0  0  0
   16.5718    6.4201    0.0000 H   0  0  0  0  0  0  0  0  0  0  0  0
   16.1780    7.1145    0.0000 H   0  0  0  0  0  0  0  0  0  0  0  0
   11.1802    4.4472    0.0000 H   0  0  0  0  0  0  0  0  0  0  0  0
   10.5626    5.0695    0.0000 H   0  0  0  0  0  0  0  0  0  0  0  0
    9.9402    4.4519    0.0000 H   0  0  0  0  0  0  0  0  0  0  0  0
    8.6003    1.7295    0.0000 H   0  0  0  0  0  0  0  0  0  0  0  0
    8.3967    4.0642    0.0000 H   0  0  0  0  0  0  0  0  0  0  0  0
    7.9922    3.3759    0.0000 H   0  0  0  0  0  0  0  0  0  0  0  0
   15.8960    2.8650    0.0000 H   0  0  0  0  0  0  0  0  0  0  0  0
   15.6698    8.5341    0.0000 H   0  0  0  0  0  0  0  0  0  0  0  0
   14.9795    8.1356    0.0000 H   0  0  0  0  0  0  0  0  0  0  0  0
   15.0990    8.2335    0.0000 H   0  0  0  0  0  0  0  0  0  0  0  0
   14.2521    8.4605    0.0000 H   0  0  0  0  0  0  0  0  0  0  0  0
   14.0252    7.6136    0.0000 H   0  0  0  0  0  0  0  0  0  0  0  0
    9.5522    0.6119    0.0000 H   0  0  0  0  0  0  0  0  0  0  0  0
   10.4008    0.3915    0.0000 H   0  0  0  0  0  0  0  0  0  0  0  0
   10.6212    1.2402    0.0000 H   0  0  0  0  0  0  0  0  0  0  0  0
    8.5474    1.2242    0.0000 H   0  0  0  0  0  0  0  0  0  0  0  0
    8.7809    0.3790    0.0000 H   0  0  0  0  0  0  0  0  0  0  0  0
    9.6260    0.6125    0.0000 H   0  0  0  0  0  0  0  0  0  0  0  0
   16.8721    8.4605    0.0000 H   0  0  0  0  0  0  0  0  0  0  0  0
    7.1962    1.1595    0.0000 H   0  0  0  0  0  0  0  0  0  0  0  0
    6.3301    0.0395    0.0000 H   0  0  0  0  0  0  0  0  0  0  0  0
    7.4040   -0.9605    0.0000 H   0  0  0  0  0  0  0  0  0  0  0  0
    8.8112   -1.2331    0.0000 H   0  0  0  0  0  0  0  0  0  0  0  0
    9.2097   -0.5428    0.0000 H   0  0  0  0  0  0  0  0  0  0  0  0
    8.2700   -1.4605    0.0000 H   0  0  0  0  0  0  0  0  0  0  0  0
    5.4641    1.5395    0.0000 H   0  0  0  0  0  0  0  0  0  0  0  0
    5.4641   -0.8405    0.0000 H   0  0  0  0  0  0  0  0  0  0  0  0
    4.5981    2.6595    0.0000 H   0  0  0  0  0  0  0  0  0  0  0  0
    7.4040   -2.9605    0.0000 H   0  0  0  0  0  0  0  0  0  0  0  0
    5.1350    3.9695    0.0000 H   0  0  0  0  0  0  0  0  0  0  0  0
    7.4040    3.0395    0.0000 H   0  0  0  0  0  0  0  0  0  0  0  0
    6.8671   -4.2705    0.0000 H   0  0  0  0  0  0  0  0  0  0  0  0
    5.4641    4.1595    0.0000 H   0  0  0  0  0  0  0  0  0  0  0  0
    3.7320    2.1595    0.0000 H   0  0  0  0  0  0  0  0  0  0  0  0
    5.4641   -4.4605    0.0000 H   0  0  0  0  0  0  0  0  0  0  0  0
    5.1350   -2.0305    0.0000 H   0  0  0  0  0  0  0  0  0  0  0  0
    7.9451    3.2669    0.0000 H   0  0  0  0  0  0  0  0  0  0  0  0
    8.3437    3.9572    0.0000 H   0  0  0  0  0  0  0  0  0  0  0  0
    4.5981   -3.3405    0.0000 H   0  0  0  0  0  0  0  0  0  0  0  0
    4.2690    4.4695    0.0000 H   0  0  0  0  0  0  0  0  0  0  0  0
    6.5380    5.1595    0.0000 H   0  0  0  0  0  0  0  0  0  0  0  0
    3.6584   -2.0428    0.0000 H   0  0  0  0  0  0  0  0  0  0  0  0
    4.0569   -2.7331    0.0000 H   0  0  0  0  0  0  0  0  0  0  0  0
    8.0622   -3.3405    0.0000 H   0  0  0  0  0  0  0  0  0  0  0  0
    8.2700    5.1595    0.0000 H   0  0  0  0  0  0  0  0  0  0  0  0
    3.7320   -3.8405    0.0000 H   0  0  0  0  0  0  0  0  0  0  0  0
    5.1350   -5.0305    0.0000 H   0  0  0  0  0  0  0  0  0  0  0  0
   10.0021   -4.4605    0.0000 H   0  0  0  0  0  0  0  0  0  0  0  0
    3.7320   -0.8405    0.0000 H   0  0  0  0  0  0  0  0  0  0  0  0
    5.1350   -7.2705    0.0000 H   0  0  0  0  0  0  0  0  0  0  0  0
   10.8681   -3.3405    0.0000 H   0  0  0  0  0  0  0  0  0  0  0  0
    9.8637   -1.6755    0.0000 H   0  0  0  0  0  0  0  0  0  0  0  0
    9.0666   -1.6755    0.0000 H   0  0  0  0  0  0  0  0  0  0  0  0
   10.3312   -2.0305    0.0000 H   0  0  0  0  0  0  0  0  0  0  0  0
    3.7320   -7.4605    0.0000 H   0  0  0  0  0  0  0  0  0  0  0  0
    3.4030   -5.0305    0.0000 H   0  0  0  0  0  0  0  0  0  0  0  0
   10.0021   -5.4605    0.0000 H   0  0  0  0  0  0  0  0  0  0  0  0
    3.4030   -7.2705    0.0000 H   0  0  0  0  0  0  0  0  0  0  0  0
    6.0010   -7.7705    0.0000 H   0  0  0  0  0  0  0  0  0  0  0  0
   11.7341   -3.8405    0.0000 H   0  0  0  0  0  0  0  0  0  0  0  0
    1.9264   -5.0428    0.0000 H   0  0  0  0  0  0  0  0  0  0  0  0
    2.3249   -5.7331    0.0000 H   0  0  0  0  0  0  0  0  0  0  0  0
   11.1972   -1.5305    0.0000 H   0  0  0  0  0  0  0  0  0  0  0  0
    3.7320   -8.4605    0.0000 H   0  0  0  0  0  0  0  0  0  0  0  0
    2.0000   -6.8405    0.0000 H   0  0  0  0  0  0  0  0  0  0  0  0
    2.0000   -3.8405    0.0000 H   0  0  0  0  0  0  0  0  0  0  0  0
  1 29  1  0  0  0  0
  1 41  1  0  0  0  0
 37  2  1  6  0  0  0
  2122  1  0  0  0  0
 52  3  1  1  0  0  0
 58  3  1  6  0  0  0
  4 54  1  0  0  0  0
  4134  1  0  0  0  0
  5 58  1  0  0  0  0
  5 61  1  0  0  0  0
 59  6  1  1  0  0  0
 63  6  1  1  0  0  0
 60  7  1  6  0  0  0
  7142  1  0  0  0  0
 62  8  1  6  0  0  0
 65  8  1  1  0  0  0
  9 63  1  0  0  0  0
  9 67  1  0  0  0  0
 10 65  1  0  0  0  0
 10 71  1  0  0  0  0
 64 11  1  6  0  0  0
 11149  1  0  0  0  0
 66 12  1  1  0  0  0
 12155  1  0  0  0  0
 68 13  1  6  0  0  0
 75 13  1  6  0  0  0
 69 14  1  6  0  0  0
 14156  1  0  0  0  0
 70 15  1  1  0  0  0
 76 15  1  1  0  0  0
 16 72  1  0  0  0  0
 16160  1  0  0  0  0
 73 17  1  6  0  0  0
 17161  1  0  0  0  0
 18 74  1  0  0  0  0
 18164  1  0  0  0  0
 19 75  1  0  0  0  0
 19 80  1  0  0  0  0
 20 76  1  0  0  0  0
 20 83  1  0  0  0  0
 77 21  1  1  0  0  0
 21172  1  0  0  0  0
 78 22  1  6  0  0  0
 22174  1  0  0  0  0
 79 23  1  6  0  0  0
 23175  1  0  0  0  0
 81 24  1  1  0  0  0
 24178  1  0  0  0  0
 82 25  1  1  0  0  0
 25179  1  0  0  0  0
 84 26  1  6  0  0  0
 26180  1  0  0  0  0
 27 85  1  0  0  0  0
 27181  1  0  0  0  0
 28 29  1  0  0  0  0
 28 30  1  0  0  0  0
 28 35  1  0  0  0  0
 28 45  1  6  0  0  0
 29 31  1  0  0  0  0
 29 36  1  1  0  0  0
 30 33  1  0  0  0  0
 30 40  1  0  0  0  0
 30 46  1  1  0  0  0
 31 32  1  0  0  0  0
 31 42  1  0  0  0  0
 31 86  1  1  0  0  0
 32 37  1  0  0  0  0
 32 41  1  0  0  0  0
 32 43  1  1  0  0  0
 33 34  1  0  0  0  0
 33 38  1  0  0  0  0
 33 87  1  6  0  0  0
 34 39  1  0  0  0  0
 34 49  1  0  0  0  0
 34 51  1  1  0  0  0
 35 37  1  0  0  0  0
 35 88  1  0  0  0  0
 35 89  1  0  0  0  0
 36 38  1  0  0  0  0
 36 90  1  0  0  0  0
 36 91  1  0  0  0  0
 37 92  1  0  0  0  0
 38 93  1  0  0  0  0
 38 94  1  0  0  0  0
 39 44  1  0  0  0  0
 39 48  1  0  0  0  0
 39 95  1  6  0  0  0
 40 44  1  0  0  0  0
 40 96  1  0  0  0  0
 40 97  1  0  0  0  0
 41 98  1  0  0  0  0
 41 99  1  0  0  0  0
 42 47  1  0  0  0  0
 42100  1  0  0  0  0
 42101  1  0  0  0  0
 43 50  1  0  0  0  0
 43102  1  0  0  0  0
 43103  1  0  0  0  0
 44104  1  0  0  0  0
 44105  1  0  0  0  0
 45106  1  0  0  0  0
 45107  1  0  0  0  0
 45108  1  0  0  0  0
 46109  1  0  0  0  0
 46110  1  0  0  0  0
 46111  1  0  0  0  0
 47 50  1  0  0  0  0
 47 54  1  0  0  0  0
 47 55  1  6  0  0  0
 48 52  1  0  0  0  0
 48 56  1  0  0  0  0
 48 57  1  0  0  0  0
 49 53  1  0  0  0  0
 49112  1  0  0  0  0
 49113  1  0  0  0  0
 50114  1  0  0  0  0
 50115  1  0  0  0  0
 51116  1  0  0  0  0
 51117  1  0  0  0  0
 51118  1  0  0  0  0
 52 53  1  0  0  0  0
 52119  1  0  0  0  0
 53120  1  0  0  0  0
 53121  1  0  0  0  0
 54123  1  0  0  0  0
 54124  1  0  0  0  0
 55125  1  0  0  0  0
 55126  1  0  0  0  0
 55127  1  0  0  0  0
 56128  1  0  0  0  0
 56129  1  0  0  0  0
 56130  1  0  0  0  0
 57131  1  0  0  0  0
 57132  1  0  0  0  0
 57133  1  0  0  0  0
 58 59  1  0  0  0  0
 58135  1  0  0  0  0
 59 60  1  0  0  0  0
 59136  1  0  0  0  0
 60 62  1  0  0  0  0
 60137  1  0  0  0  0
 61 62  1  0  0  0  0
 61138  1  0  0  0  0
 61139  1  0  0  0  0
 62140  1  0  0  0  0
 63 64  1  0  0  0  0
 63141  1  0  0  0  0
 64 66  1  0  0  0  0
 64143  1  0  0  0  0
 65 68  1  0  0  0  0
 65144  1  0  0  0  0
 66 69  1  0  0  0  0
 66145  1  0  0  0  0
 67 69  1  0  0  0  0
 67 72  1  1  0  0  0
 67146  1  0  0  0  0
 68 70  1  0  0  0  0
 68147  1  0  0  0  0
 69148  1  0  0  0  0
 70 73  1  0  0  0  0
 70150  1  0  0  0  0
 71 73  1  0  0  0  0
 71 74  1  1  0  0  0
 71151  1  0  0  0  0
 72152  1  0  0  0  0
 72153  1  0  0  0  0
 73154  1  0  0  0  0
 74157  1  0  0  0  0
 74158  1  0  0  0  0
 75 77  1  0  0  0  0
 75159  1  0  0  0  0
 76 78  1  0  0  0  0
 76162  1  0  0  0  0
 77 79  1  0  0  0  0
 77163  1  0  0  0  0
 78 82  1  0  0  0  0
 78165  1  0  0  0  0
 79 81  1  0  0  0  0
 79166  1  0  0  0  0
 80 81  1  0  0  0  0
 80167  1  0  0  0  0
 80168  1  0  0  0  0
 81169  1  0  0  0  0
 82 84  1  0  0  0  0
 82170  1  0  0  0  0
 83 84  1  0  0  0  0
 83 85  1  1  0  0  0
 83171  1  0  0  0  0
 84173  1  0  0  0  0
 85176  1  0  0  0  0
 85177  1  0  0  0  0
M  END
> <PUBCHEM_COMPOUND_CID>
16109775

> <PUBCHEM_COMPOUND_CANONICALIZED>
1

> <PUBCHEM_CACTVS_COMPLEXITY>
2310

> <PUBCHEM_CACTVS_HBOND_ACCEPTOR>
27

> <PUBCHEM_CACTVS_HBOND_DONOR>
16

> <PUBCHEM_CACTVS_ROTATABLE_BOND>
14

> <PUBCHEM_CACTVS_SUBSKEYS>
AAADcfB8PgAAAAAAAAAAAAAAAAAAASAAAAA0aNGjRIAAAEjAAAAAGgAACAAAD1SwgAMCCAAABgAAAAAAAAAAAAAAAAAAAAAAAAAREAIAAAAiQAAFAAAHAAHA4PwPgAAAAAAAAADCAAYAADAAAAAAAAAAAA==

> <PUBCHEM_IUPAC_OPENEYE_NAME>
(2S,3R,4S,5S,6R)-2-[(2S,3R,4S,5S)-4-hydroxy-2-[[(1S,2R,4S,5R,8R,10S,13R,14R,17S,18R,20S)-2-hydroxy-20-(hydroxymethyl)-4,5,9,9,13,20-hexamethyl-24-oxahexacyclo[15.5.2.01,18.04,17.05,14.08,13]tetracosan-10-yl]oxy]-5-[(2S,3R,4S,5R,6R)-5-hydroxy-6-(hydroxymethyl)-4-[(2S,3R,4S,5S,6R)-3,4,5-trihydroxy-6-(hydroxymethyl)tetrahydropyran-2-yl]oxy-3-[(2S,3R,4S,5R)-3,4,5-trihydroxytetrahydropyran-2-yl]oxy-tetrahydropyran-2-yl]oxy-tetrahydropyran-3-yl]oxy-6-(hydroxymethyl)tetrahydropyran-3,4,5-triol

> <PUBCHEM_IUPAC_CAS_NAME>
(2S,3R,4S,5S,6R)-2-[[(2S,3R,4S,5S)-4-hydroxy-2-[[(1S,2R,4S,5R,8R,10S,13R,14R,17S,18R,20S)-2-hydroxy-20-(hydroxymethyl)-4,5,9,9,13,20-hexamethyl-24-oxahexacyclo[15.5.2.01,18.04,17.05,14.08,13]tetracosan-10-yl]oxy]-5-[[(2S,3R,4S,5R,6R)-5-hydroxy-6-(hydroxymethyl)-4-[[(2S,3R,4S,5S,6R)-3,4,5-trihydroxy-6-(hydroxymethyl)-2-oxanyl]oxy]-3-[[(2S,3R,4S,5R)-3,4,5-trihydroxy-2-oxanyl]oxy]-2-oxanyl]oxy]-3-oxanyl]oxy]-6-(hydroxymethyl)oxane-3,4,5-triol

> <PUBCHEM_IUPAC_NAME_MARKUP>
(2<I>S</I>,3<I>R</I>,4<I>S</I>,5<I>S</I>,6<I>R</I>)-2-[(2<I>S</I>,3<I>R</I>,4<I>S</I>,5<I>S</I>)-4-hydroxy-2-[[(1<I>S</I>,2<I>R</I>,4<I>S</I>,5<I>R</I>,8<I>R</I>,10<I>S</I>,13<I>R</I>,14<I>R</I>,17<I>S</I>,18<I>R</I>,20<I>S</I>)-2-hydroxy-20-(hydroxymethyl)-4,5,9,9,13,20-hexamethyl-24-oxahexacyclo[15.5.2.0<SUP>1,18</SUP>.0<SUP>4,17</SUP>.0<SUP>5,14</SUP>.0<SUP>8,13</SUP>]tetracosan-10-yl]oxy]-5-[(2<I>S</I>,3<I>R</I>,4<I>S</I>,5<I>R</I>,6<I>R</I>)-5-hydroxy-6-(hydroxymethyl)-4-[(2<I>S</I>,3<I>R</I>,4<I>S</I>,5<I>S</I>,6<I>R</I>)-3,4,5-trihydroxy-6-(hydroxymethyl)oxan-2-yl]oxy-3-[(2<I>S</I>,3<I>R</I>,4<I>S</I>,5<I>R</I>)-3,4,5-trihydroxyoxan-2-yl]oxyoxan-2-yl]oxyoxan-3-yl]oxy-6-(hydroxymethyl)oxane-3,4,5-triol

> <PUBCHEM_IUPAC_NAME>
(2S,3R,4S,5S,6R)-2-[(2S,3R,4S,5S)-4-hydroxy-2-[[(1S,2R,4S,5R,8R,10S,13R,14R,17S,18R,20S)-2-hydroxy-20-(hydroxymethyl)-4,5,9,9,13,20-hexamethyl-24-oxahexacyclo[15.5.2.01,18.04,17.05,14.08,13]tetracosan-10-yl]oxy]-5-[(2S,3R,4S,5R,6R)-5-hydroxy-6-(hydroxymethyl)-4-[(2S,3R,4S,5S,6R)-3,4,5-trihydroxy-6-(hydroxymethyl)oxan-2-yl]oxy-3-[(2S,3R,4S,5R)-3,4,5-trihydroxyoxan-2-yl]oxyoxan-2-yl]oxyoxan-3-yl]oxy-6-(hydroxymethyl)oxane-3,4,5-triol

> <PUBCHEM_IUPAC_SYSTEMATIC_NAME>
(2R,3S,4S,5R,6S)-2-(hydroxymethyl)-6-[(2S,3R,4S,5S)-2-[[(1S,2R,4S,5R,8R,10S,13R,14R,17S,18R,20S)-20-(hydroxymethyl)-4,5,9,9,13,20-hexamethyl-2-oxidanyl-24-oxahexacyclo[15.5.2.01,18.04,17.05,14.08,13]tetracosan-10-yl]oxy]-5-[(2S,3R,4S,5R,6R)-6-(hydroxymethyl)-4-[(2S,3R,4S,5S,6R)-6-(hydroxymethyl)-3,4,5-tris(oxidanyl)oxan-2-yl]oxy-5-oxidanyl-3-[(2S,3R,4S,5R)-3,4,5-tris(oxidanyl)oxan-2-yl]oxy-oxan-2-yl]oxy-4-oxidanyl-oxan-3-yl]oxy-oxane-3,4,5-triol

> <PUBCHEM_IUPAC_TRADITIONAL_NAME>
(2S,3R,4S,5S,6R)-2-[(2S,3R,4S,5S)-4-hydroxy-2-[[(1S,2R,4S,5R,8R,10S,13R,14R,17S,18R,20S)-2-hydroxy-4,5,9,9,13,20-hexamethyl-20-methylol-24-oxahexacyclo[15.5.2.01,18.04,17.05,14.08,13]tetracosan-10-yl]oxy]-5-[(2S,3R,4S,5R,6R)-5-hydroxy-6-methylol-4-[(2S,3R,4S,5S,6R)-3,4,5-trihydroxy-6-methylol-tetrahydropyran-2-yl]oxy-3-[(2S,3R,4S,5R)-3,4,5-trihydroxytetrahydropyran-2-yl]oxy-tetrahydropyran-2-yl]oxy-tetrahydropyran-3-yl]oxy-6-methylol-tetrahydropyran-3,4,5-triol

> <PUBCHEM_IUPAC_INCHI>
InChI=1S/C58H96O27/c1-52(2)29-7-11-55(5)30(8-12-58-31-15-53(3,22-62)13-14-57(31,23-77-58)32(64)16-56(55,58)6)54(29,4)10-9-33(52)82-50-45(84-49-43(74)40(71)36(67)26(18-60)79-49)38(69)28(21-76-50)81-51-46(85-47-41(72)34(65)24(63)20-75-47)44(37(68)27(19-61)80-51)83-48-42(73)39(70)35(66)25(17-59)78-48/h24-51,59-74H,7-23H2,1-6H3/t24-,25-,26-,27-,28+,29+,30-,31-,32-,33+,34+,35-,36-,37-,38+,39+,40+,41-,42-,43-,44+,45-,46-,47+,48+,49+,50+,51+,53+,54+,55-,56+,57-,58+/m1/s1

> <PUBCHEM_IUPAC_INCHIKEY>
OCLRKHSJKXGXRY-JOONIPAFSA-N

> <PUBCHEM_XLOGP3_AA>
-2.5

> <PUBCHEM_EXACT_MASS>
1224.613898

> <PUBCHEM_MOLECULAR_FORMULA>
C58H96O27

> <PUBCHEM_MOLECULAR_WEIGHT>
1225.4

> <PUBCHEM_OPENEYE_CAN_SMILES>
CC1(C2CCC3(C(C2(CCC1OC4C(C(C(CO4)OC5C(C(C(C(O5)CO)O)OC6C(C(C(C(O6)CO)O)O)O)OC7C(C(C(CO7)O)O)O)O)OC8C(C(C(C(O8)CO)O)O)O)C)CCC91C3(CC(C2(C9CC(CC2)(C)CO)CO1)O)C)C)C

> <PUBCHEM_OPENEYE_ISO_SMILES>
C[C@@]1(CC[C@@]23CO[C@]4([C@@H]2C1)CC[C@@H]5[C@]6(CC[C@@H](C([C@@H]6CC[C@]5([C@@]4(C[C@H]3O)C)C)(C)C)O[C@H]7[C@@H]([C@H]([C@H](CO7)O[C@H]8[C@@H]([C@H]([C@@H]([C@H](O8)CO)O)O[C@H]9[C@@H]([C@H]([C@@H]([C@H](O9)CO)O)O)O)O[C@H]1[C@@H]([C@H]([C@@H](CO1)O)O)O)O)O[C@H]1[C@@H]([C@H]([C@@H]([C@H](O1)CO)O)O)O)C)CO

> <PUBCHEM_CACTVS_TPSA>
425

> <PUBCHEM_MONOISOTOPIC_WEIGHT>
1224.613898

> <PUBCHEM_TOTAL_CHARGE>
0

> <PUBCHEM_HEAVY_ATOM_COUNT>
85

> <PUBCHEM_ATOM_DEF_STEREO_COUNT>
34

> <PUBCHEM_ATOM_UDEF_STEREO_COUNT>
0

> <PUBCHEM_BOND_DEF_STEREO_COUNT>
0

> <PUBCHEM_BOND_UDEF_STEREO_COUNT>
0

> <PUBCHEM_ISOTOPIC_ATOM_COUNT>
0

> <PUBCHEM_COMPONENT_COUNT>
1

> <PUBCHEM_CACTVS_TAUTO_COUNT>
-1

> <PUBCHEM_COORDINATE_TYPE>
1
5
255

> <PUBCHEM_BONDANNOTATIONS>
64  11  6
66  12  5
68  13  6
75  13  6
69  14  6
70  15  5
76  15  5
73  17  6
37  2  6
77  21  5
78  22  6
79  23  6
81  24  5
82  25  5
84  26  6
28  45  6
29  36  5
52  3  5
58  3  6
30  46  5
31  86  5
32  43  5
33  87  6
34  51  5
39  95  6
47  55  6
59  6  5
63  6  5
67  72  5
60  7  6
71  74  5
62  8  6
65  8  5
83  85  5

$$$$
