16109781
  -OEChem-09092004222D

143151  0     1  0  0  0  0  0999 V2000
    6.8999    2.7310    0.0000 O   0  0  0  0  0  0  0  0  0  0  0  0
    6.7957    5.1278    0.0000 O   0  0  0  0  0  0  0  0  0  0  0  0
   12.2948   -1.1258    0.0000 O   0  0  0  0  0  0  0  0  0  0  0  0
    2.6200    3.4834    0.0000 O   0  0  0  0  0  0  0  0  0  0  0  0
   13.1608    0.3742    0.0000 O   0  0  0  0  0  0  0  0  0  0  0  0
   14.0268   -2.1258    0.0000 O   0  0  0  0  0  0  0  0  0  0  0  0
   15.7589   -1.1258    0.0000 O   0  0  0  0  0  0  0  0  0  0  0  0
   15.7589    0.8742    0.0000 O   0  0  0  0  0  0  0  0  0  0  0  0
   12.2948   -2.1258    0.0000 O   0  0  0  0  0  0  0  0  0  0  0  0
   14.0268   -4.1258    0.0000 O   0  0  0  0  0  0  0  0  0  0  0  0
   16.6249    2.3742    0.0000 O   0  0  0  0  0  0  0  0  0  0  0  0
   12.2948   -5.1258    0.0000 O   0  0  0  0  0  0  0  0  0  0  0  0
   10.5627   -4.1258    0.0000 O   0  0  0  0  0  0  0  0  0  0  0  0
   14.0268    1.8742    0.0000 O   0  0  0  0  0  0  0  0  0  0  0  0
   14.0268    3.8742    0.0000 O   0  0  0  0  0  0  0  0  0  0  0  0
    9.6967   -2.6258    0.0000 O   0  0  0  0  0  0  0  0  0  0  0  0
   15.7589    4.8742    0.0000 O   0  0  0  0  0  0  0  0  0  0  0  0
   18.3570    3.3742    0.0000 O   0  0  0  0  0  0  0  0  0  0  0  0
    7.6521    2.6245    0.0000 C   0  0  2  0  0  0  0  0  0  0  0  0
    6.7842    2.1279    0.0000 C   0  0  2  0  0  0  0  0  0  0  0  0
    8.5602    2.1142    0.0000 C   0  0  1  0  0  0  0  0  0  0  0  0
    5.9201    2.6312    0.0000 C   0  0  1  0  0  0  0  0  0  0  0  0
    5.9239    3.6312    0.0000 C   0  0  2  0  0  0  0  0  0  0  0  0
    8.5642    1.0726    0.0000 C   0  0  1  0  0  0  0  0  0  0  0  0
    9.4975    0.5192    0.0000 C   0  0  2  0  0  0  0  0  0  0  0  0
    7.6560    3.6245    0.0000 C   0  0  0  0  0  0  0  0  0  0  0  0
    6.7641    1.0864    0.0000 C   0  0  0  0  0  0  0  0  0  0  0  0
    6.7919    4.1279    0.0000 C   0  0  1  0  0  0  0  0  0  0  0  0
    7.6601    0.5552    0.0000 C   0  0  0  0  0  0  0  0  0  0  0  0
   10.4392    1.0581    0.0000 C   0  0  1  0  0  0  0  0  0  0  0  0
    9.4892    2.6747    0.0000 C   0  0  0  0  0  0  0  0  0  0  0  0
    6.5026    3.4254    0.0000 C   0  0  0  0  0  0  0  0  0  0  0  0
    5.0241    2.1000    0.0000 C   0  0  0  0  0  0  0  0  0  0  0  0
    5.0321    4.1693    0.0000 C   0  0  0  0  0  0  0  0  0  0  0  0
   10.4350    2.1431    0.0000 C   0  0  0  0  0  0  0  0  0  0  0  0
    8.2978    3.3881    0.0000 C   0  0  0  0  0  0  0  0  0  0  0  0
    8.8986    3.0552    0.0000 C   0  0  0  0  0  0  0  0  0  0  0  0
    4.1200    2.6173    0.0000 C   0  0  2  0  0  0  0  0  0  0  0  0
   11.4244    0.5044    0.0000 C   0  0  0  0  0  0  0  0  0  0  0  0
    9.4757   -0.6107    0.0000 C   0  0  0  0  0  0  0  0  0  0  0  0
    4.1240    3.6590    0.0000 C   0  0  0  0  0  0  0  0  0  0  0  0
    8.6295    0.0226    0.0000 C   0  0  0  0  0  0  0  0  0  0  0  0
   11.4288   -0.6258    0.0000 C   0  0  2  0  0  0  0  0  0  0  0  0
   10.4478   -1.1871    0.0000 C   0  0  0  0  0  0  0  0  0  0  0  0
    3.1200    2.6173    0.0000 C   0  0  0  0  0  0  0  0  0  0  0  0
    3.6200    1.7513    0.0000 C   0  0  0  0  0  0  0  0  0  0  0  0
   11.9177    1.3742    0.0000 C   0  0  0  0  0  0  0  0  0  0  0  0
   12.4244    0.5121    0.0000 C   0  0  0  0  0  0  0  0  0  0  0  0
   13.1608   -0.6258    0.0000 C   0  0  2  0  0  0  0  0  0  0  0  0
   14.0268   -1.1258    0.0000 C   0  0  1  0  0  0  0  0  0  0  0  0
   14.8929   -0.6258    0.0000 C   0  0  2  0  0  0  0  0  0  0  0  0
   14.0268    0.8742    0.0000 C   0  0  0  0  0  0  0  0  0  0  0  0
   14.8929    0.3742    0.0000 C   0  0  2  0  0  0  0  0  0  0  0  0
   13.1608   -2.6258    0.0000 C   0  0  2  0  0  0  0  0  0  0  0  0
   13.1608   -3.6258    0.0000 C   0  0  1  0  0  0  0  0  0  0  0  0
   15.7589    1.8742    0.0000 C   0  0  2  0  0  0  0  0  0  0  0  0
   12.2948   -4.1258    0.0000 C   0  0  2  0  0  0  0  0  0  0  0  0
   11.4288   -2.6258    0.0000 C   0  0  1  0  0  0  0  0  0  0  0  0
   11.4288   -3.6258    0.0000 C   0  0  1  0  0  0  0  0  0  0  0  0
   14.8929    2.3742    0.0000 C   0  0  1  0  0  0  0  0  0  0  0  0
   14.8929    3.3742    0.0000 C   0  0  2  0  0  0  0  0  0  0  0  0
   10.5627   -2.1258    0.0000 C   0  0  0  0  0  0  0  0  0  0  0  0
   16.6249    3.3742    0.0000 C   0  0  1  0  0  0  0  0  0  0  0  0
   15.7589    3.8742    0.0000 C   0  0  1  0  0  0  0  0  0  0  0  0
   17.4909    3.8742    0.0000 C   0  0  0  0  0  0  0  0  0  0  0  0
    5.9168    1.7812    0.0000 H   0  0  0  0  0  0  0  0  0  0  0  0
    8.5576    0.2226    0.0000 H   0  0  0  0  0  0  0  0  0  0  0  0
    8.2661    3.5145    0.0000 H   0  0  0  0  0  0  0  0  0  0  0  0
    7.8703    4.2063    0.0000 H   0  0  0  0  0  0  0  0  0  0  0  0
    6.1554    1.2043    0.0000 H   0  0  0  0  0  0  0  0  0  0  0  0
    6.5438    0.5069    0.0000 H   0  0  0  0  0  0  0  0  0  0  0  0
    6.2561    4.4399    0.0000 H   0  0  0  0  0  0  0  0  0  0  0  0
    7.2573    0.0839    0.0000 H   0  0  0  0  0  0  0  0  0  0  0  0
    8.0556    0.0777    0.0000 H   0  0  0  0  0  0  0  0  0  0  0  0
   11.1720    1.4888    0.0000 H   0  0  0  0  0  0  0  0  0  0  0  0
    9.8809    3.1552    0.0000 H   0  0  0  0  0  0  0  0  0  0  0  0
    9.0828    3.1429    0.0000 H   0  0  0  0  0  0  0  0  0  0  0  0
    7.1059    3.5683    0.0000 H   0  0  0  0  0  0  0  0  0  0  0  0
    6.5364    4.0444    0.0000 H   0  0  0  0  0  0  0  0  0  0  0  0
    4.6286    1.6225    0.0000 H   0  0  0  0  0  0  0  0  0  0  0  0
    5.4269    1.6286    0.0000 H   0  0  0  0  0  0  0  0  0  0  0  0
    5.4385    4.6375    0.0000 H   0  0  0  0  0  0  0  0  0  0  0  0
    4.6403    4.6498    0.0000 H   0  0  0  0  0  0  0  0  0  0  0  0
   11.0463    2.0394    0.0000 H   0  0  0  0  0  0  0  0  0  0  0  0
   10.6418    2.7276    0.0000 H   0  0  0  0  0  0  0  0  0  0  0  0
    8.7713    2.9877    0.0000 H   0  0  0  0  0  0  0  0  0  0  0  0
    8.6982    3.8615    0.0000 H   0  0  0  0  0  0  0  0  0  0  0  0
    7.8244    3.7884    0.0000 H   0  0  0  0  0  0  0  0  0  0  0  0
    9.4820    2.8454    0.0000 H   0  0  0  0  0  0  0  0  0  0  0  0
    9.1084    3.6386    0.0000 H   0  0  0  0  0  0  0  0  0  0  0  0
    8.3151    3.2650    0.0000 H   0  0  0  0  0  0  0  0  0  0  0  0
    8.8670   -0.4929    0.0000 H   0  0  0  0  0  0  0  0  0  0  0  0
    9.2554   -1.1903    0.0000 H   0  0  0  0  0  0  0  0  0  0  0  0
    3.9172    4.2434    0.0000 H   0  0  0  0  0  0  0  0  0  0  0  0
    3.5128    3.5552    0.0000 H   0  0  0  0  0  0  0  0  0  0  0  0
    8.3216    0.5607    0.0000 H   0  0  0  0  0  0  0  0  0  0  0  0
    8.0914   -0.2854    0.0000 H   0  0  0  0  0  0  0  0  0  0  0  0
    8.9374   -0.5156    0.0000 H   0  0  0  0  0  0  0  0  0  0  0  0
   11.9651   -0.3147    0.0000 H   0  0  0  0  0  0  0  0  0  0  0  0
   10.0451   -1.6584    0.0000 H   0  0  0  0  0  0  0  0  0  0  0  0
   10.8433   -1.6646    0.0000 H   0  0  0  0  0  0  0  0  0  0  0  0
    7.3339    5.4358    0.0000 H   0  0  0  0  0  0  0  0  0  0  0  0
    2.5374    2.4053    0.0000 H   0  0  0  0  0  0  0  0  0  0  0  0
    3.2277    2.0067    0.0000 H   0  0  0  0  0  0  0  0  0  0  0  0
    3.0831    2.0613    0.0000 H   0  0  0  0  0  0  0  0  0  0  0  0
    3.3100    1.2144    0.0000 H   0  0  0  0  0  0  0  0  0  0  0  0
    4.1569    1.4413    0.0000 H   0  0  0  0  0  0  0  0  0  0  0  0
   12.4570    1.0684    0.0000 H   0  0  0  0  0  0  0  0  0  0  0  0
   12.2236    1.9135    0.0000 H   0  0  0  0  0  0  0  0  0  0  0  0
   11.3784    1.6801    0.0000 H   0  0  0  0  0  0  0  0  0  0  0  0
   12.4292   -0.1079    0.0000 H   0  0  0  0  0  0  0  0  0  0  0  0
   13.0444    0.5169    0.0000 H   0  0  0  0  0  0  0  0  0  0  0  0
   12.4196    1.1321    0.0000 H   0  0  0  0  0  0  0  0  0  0  0  0
    2.0000    3.4834    0.0000 H   0  0  0  0  0  0  0  0  0  0  0  0
   13.1608   -1.2458    0.0000 H   0  0  0  0  0  0  0  0  0  0  0  0
   14.5638   -1.4358    0.0000 H   0  0  0  0  0  0  0  0  0  0  0  0
   15.4298   -0.3158    0.0000 H   0  0  0  0  0  0  0  0  0  0  0  0
   14.4254    1.3492    0.0000 H   0  0  0  0  0  0  0  0  0  0  0  0
   13.6283    1.3492    0.0000 H   0  0  0  0  0  0  0  0  0  0  0  0
   14.8929    0.9942    0.0000 H   0  0  0  0  0  0  0  0  0  0  0  0
   13.6977   -2.9358    0.0000 H   0  0  0  0  0  0  0  0  0  0  0  0
   16.2958   -0.8158    0.0000 H   0  0  0  0  0  0  0  0  0  0  0  0
   13.1608   -4.2458    0.0000 H   0  0  0  0  0  0  0  0  0  0  0  0
   15.2220    1.5642    0.0000 H   0  0  0  0  0  0  0  0  0  0  0  0
   12.8317   -4.4358    0.0000 H   0  0  0  0  0  0  0  0  0  0  0  0
   11.4288   -2.0058    0.0000 H   0  0  0  0  0  0  0  0  0  0  0  0
   11.4288   -4.2458    0.0000 H   0  0  0  0  0  0  0  0  0  0  0  0
   14.3559    2.6842    0.0000 H   0  0  0  0  0  0  0  0  0  0  0  0
   14.5638   -3.8158    0.0000 H   0  0  0  0  0  0  0  0  0  0  0  0
   14.8929    3.9942    0.0000 H   0  0  0  0  0  0  0  0  0  0  0  0
   10.9613   -1.6508    0.0000 H   0  0  0  0  0  0  0  0  0  0  0  0
   10.1642   -1.6508    0.0000 H   0  0  0  0  0  0  0  0  0  0  0  0
   17.1618    3.0642    0.0000 H   0  0  0  0  0  0  0  0  0  0  0  0
   15.2220    4.1842    0.0000 H   0  0  0  0  0  0  0  0  0  0  0  0
   12.8317   -5.4358    0.0000 H   0  0  0  0  0  0  0  0  0  0  0  0
   10.5627   -4.7458    0.0000 H   0  0  0  0  0  0  0  0  0  0  0  0
   13.4899    2.1842    0.0000 H   0  0  0  0  0  0  0  0  0  0  0  0
   17.8895    4.3492    0.0000 H   0  0  0  0  0  0  0  0  0  0  0  0
   17.0924    4.3492    0.0000 H   0  0  0  0  0  0  0  0  0  0  0  0
   14.0268    4.4942    0.0000 H   0  0  0  0  0  0  0  0  0  0  0  0
    9.1598   -2.3158    0.0000 H   0  0  0  0  0  0  0  0  0  0  0  0
   16.2958    5.1842    0.0000 H   0  0  0  0  0  0  0  0  0  0  0  0
   18.8939    3.6842    0.0000 H   0  0  0  0  0  0  0  0  0  0  0  0
  1 20  1  0  0  0  0
  1 32  1  0  0  0  0
 28  2  1  6  0  0  0
  2102  1  0  0  0  0
 43  3  1  1  0  0  0
 49  3  1  6  0  0  0
  4 45  1  0  0  0  0
  4114  1  0  0  0  0
  5 49  1  0  0  0  0
  5 52  1  0  0  0  0
 50  6  1  1  0  0  0
 54  6  1  1  0  0  0
 51  7  1  6  0  0  0
  7122  1  0  0  0  0
 53  8  1  6  0  0  0
 56  8  1  1  0  0  0
  9 54  1  0  0  0  0
  9 58  1  0  0  0  0
 55 10  1  6  0  0  0
 10129  1  0  0  0  0
 11 56  1  0  0  0  0
 11 63  1  0  0  0  0
 57 12  1  1  0  0  0
 12135  1  0  0  0  0
 59 13  1  6  0  0  0
 13136  1  0  0  0  0
 60 14  1  6  0  0  0
 14137  1  0  0  0  0
 61 15  1  1  0  0  0
 15140  1  0  0  0  0
 16 62  1  0  0  0  0
 16141  1  0  0  0  0
 64 17  1  6  0  0  0
 17142  1  0  0  0  0
 18 65  1  0  0  0  0
 18143  1  0  0  0  0
 19 20  1  0  0  0  0
 19 21  1  0  0  0  0
 19 26  1  0  0  0  0
 19 36  1  6  0  0  0
 20 22  1  0  0  0  0
 20 27  1  1  0  0  0
 21 24  1  0  0  0  0
 21 31  1  0  0  0  0
 21 37  1  1  0  0  0
 22 23  1  0  0  0  0
 22 33  1  0  0  0  0
 22 66  1  1  0  0  0
 23 28  1  0  0  0  0
 23 32  1  0  0  0  0
 23 34  1  1  0  0  0
 24 25  1  0  0  0  0
 24 29  1  0  0  0  0
 24 67  1  6  0  0  0
 25 30  1  0  0  0  0
 25 40  1  0  0  0  0
 25 42  1  1  0  0  0
 26 28  1  0  0  0  0
 26 68  1  0  0  0  0
 26 69  1  0  0  0  0
 27 29  1  0  0  0  0
 27 70  1  0  0  0  0
 27 71  1  0  0  0  0
 28 72  1  0  0  0  0
 29 73  1  0  0  0  0
 29 74  1  0  0  0  0
 30 35  1  0  0  0  0
 30 39  1  0  0  0  0
 30 75  1  6  0  0  0
 31 35  1  0  0  0  0
 31 76  1  0  0  0  0
 31 77  1  0  0  0  0
 32 78  1  0  0  0  0
 32 79  1  0  0  0  0
 33 38  1  0  0  0  0
 33 80  1  0  0  0  0
 33 81  1  0  0  0  0
 34 41  1  0  0  0  0
 34 82  1  0  0  0  0
 34 83  1  0  0  0  0
 35 84  1  0  0  0  0
 35 85  1  0  0  0  0
 36 86  1  0  0  0  0
 36 87  1  0  0  0  0
 36 88  1  0  0  0  0
 37 89  1  0  0  0  0
 37 90  1  0  0  0  0
 37 91  1  0  0  0  0
 38 41  1  0  0  0  0
 38 45  1  0  0  0  0
 38 46  1  6  0  0  0
 39 43  1  0  0  0  0
 39 47  1  0  0  0  0
 39 48  1  0  0  0  0
 40 44  1  0  0  0  0
 40 92  1  0  0  0  0
 40 93  1  0  0  0  0
 41 94  1  0  0  0  0
 41 95  1  0  0  0  0
 42 96  1  0  0  0  0
 42 97  1  0  0  0  0
 42 98  1  0  0  0  0
 43 44  1  0  0  0  0
 43 99  1  0  0  0  0
 44100  1  0  0  0  0
 44101  1  0  0  0  0
 45103  1  0  0  0  0
 45104  1  0  0  0  0
 46105  1  0  0  0  0
 46106  1  0  0  0  0
 46107  1  0  0  0  0
 47108  1  0  0  0  0
 47109  1  0  0  0  0
 47110  1  0  0  0  0
 48111  1  0  0  0  0
 48112  1  0  0  0  0
 48113  1  0  0  0  0
 49 50  1  0  0  0  0
 49115  1  0  0  0  0
 50 51  1  0  0  0  0
 50116  1  0  0  0  0
 51 53  1  0  0  0  0
 51117  1  0  0  0  0
 52 53  1  0  0  0  0
 52118  1  0  0  0  0
 52119  1  0  0  0  0
 53120  1  0  0  0  0
 54 55  1  0  0  0  0
 54121  1  0  0  0  0
 55 57  1  0  0  0  0
 55123  1  0  0  0  0
 56 60  1  0  0  0  0
 56124  1  0  0  0  0
 57 59  1  0  0  0  0
 57125  1  0  0  0  0
 58 59  1  0  0  0  0
 58 62  1  1  0  0  0
 58126  1  0  0  0  0
 59127  1  0  0  0  0
 60 61  1  0  0  0  0
 60128  1  0  0  0  0
 61 64  1  0  0  0  0
 61130  1  0  0  0  0
 62131  1  0  0  0  0
 62132  1  0  0  0  0
 63 64  1  0  0  0  0
 63 65  1  1  0  0  0
 63133  1  0  0  0  0
 64134  1  0  0  0  0
 65138  1  0  0  0  0
 65139  1  0  0  0  0
M  END
> <PUBCHEM_COMPOUND_CID>
16109781

> <PUBCHEM_COMPOUND_CANONICALIZED>
1

> <PUBCHEM_CACTVS_COMPLEXITY>
1730

> <PUBCHEM_CACTVS_HBOND_ACCEPTOR>
18

> <PUBCHEM_CACTVS_HBOND_DONOR>
11

> <PUBCHEM_CACTVS_ROTATABLE_BOND>
9

> <PUBCHEM_CACTVS_SUBSKEYS>
AAADcfB8PgAAAAAAAAAAAAAAAAAAASAAAAA0aNGDBIAAAEjAAAAAGgAACAAAD1SwgAMCCAAABgAAAAAAAAAAAAAAAAAAAAAAAAAREAIAAAAiQAAFAAAHAAHA4PwPgAAAAAAAAADCAAYAADAAAAAAAAAAAA==

> <PUBCHEM_IUPAC_OPENEYE_NAME>
(2S,3R,4S,5S,6R)-2-[(3S,4S,5R,6S)-4-hydroxy-6-[[(1S,2R,4S,5R,8R,10S,13R,14R,17S,18R,20S)-2-hydroxy-20-(hydroxymethyl)-4,5,9,9,13,20-hexamethyl-24-oxahexacyclo[15.5.2.01,18.04,17.05,14.08,13]tetracosan-10-yl]oxy]-5-[(2S,3R,4S,5S,6R)-3,4,5-trihydroxy-6-(hydroxymethyl)tetrahydropyran-2-yl]oxy-tetrahydropyran-3-yl]oxy-6-(hydroxymethyl)tetrahydropyran-3,4,5-triol

> <PUBCHEM_IUPAC_CAS_NAME>
(2S,3R,4S,5S,6R)-2-[[(3S,4S,5R,6S)-4-hydroxy-6-[[(1S,2R,4S,5R,8R,10S,13R,14R,17S,18R,20S)-2-hydroxy-20-(hydroxymethyl)-4,5,9,9,13,20-hexamethyl-24-oxahexacyclo[15.5.2.01,18.04,17.05,14.08,13]tetracosan-10-yl]oxy]-5-[[(2S,3R,4S,5S,6R)-3,4,5-trihydroxy-6-(hydroxymethyl)-2-oxanyl]oxy]-3-oxanyl]oxy]-6-(hydroxymethyl)oxane-3,4,5-triol

> <PUBCHEM_IUPAC_NAME_MARKUP>
(2<I>S</I>,3<I>R</I>,4<I>S</I>,5<I>S</I>,6<I>R</I>)-2-[(3<I>S</I>,4<I>S</I>,5<I>R</I>,6<I>S</I>)-4-hydroxy-6-[[(1<I>S</I>,2<I>R</I>,4<I>S</I>,5<I>R</I>,8<I>R</I>,10<I>S</I>,13<I>R</I>,14<I>R</I>,17<I>S</I>,18<I>R</I>,20<I>S</I>)-2-hydroxy-20-(hydroxymethyl)-4,5,9,9,13,20-hexamethyl-24-oxahexacyclo[15.5.2.0<SUP>1,18</SUP>.0<SUP>4,17</SUP>.0<SUP>5,14</SUP>.0<SUP>8,13</SUP>]tetracosan-10-yl]oxy]-5-[(2<I>S</I>,3<I>R</I>,4<I>S</I>,5<I>S</I>,6<I>R</I>)-3,4,5-trihydroxy-6-(hydroxymethyl)oxan-2-yl]oxyoxan-3-yl]oxy-6-(hydroxymethyl)oxane-3,4,5-triol

> <PUBCHEM_IUPAC_NAME>
(2S,3R,4S,5S,6R)-2-[(3S,4S,5R,6S)-4-hydroxy-6-[[(1S,2R,4S,5R,8R,10S,13R,14R,17S,18R,20S)-2-hydroxy-20-(hydroxymethyl)-4,5,9,9,13,20-hexamethyl-24-oxahexacyclo[15.5.2.01,18.04,17.05,14.08,13]tetracosan-10-yl]oxy]-5-[(2S,3R,4S,5S,6R)-3,4,5-trihydroxy-6-(hydroxymethyl)oxan-2-yl]oxyoxan-3-yl]oxy-6-(hydroxymethyl)oxane-3,4,5-triol

> <PUBCHEM_IUPAC_SYSTEMATIC_NAME>
(2R,3S,4S,5R,6S)-2-(hydroxymethyl)-6-[(3S,4S,5R,6S)-6-[[(1S,2R,4S,5R,8R,10S,13R,14R,17S,18R,20S)-20-(hydroxymethyl)-4,5,9,9,13,20-hexamethyl-2-oxidanyl-24-oxahexacyclo[15.5.2.01,18.04,17.05,14.08,13]tetracosan-10-yl]oxy]-5-[(2S,3R,4S,5S,6R)-6-(hydroxymethyl)-3,4,5-tris(oxidanyl)oxan-2-yl]oxy-4-oxidanyl-oxan-3-yl]oxy-oxane-3,4,5-triol

> <PUBCHEM_IUPAC_TRADITIONAL_NAME>
(2S,3R,4S,5S,6R)-2-[(3S,4S,5R,6S)-4-hydroxy-6-[[(1S,2R,4S,5R,8R,10S,13R,14R,17S,18R,20S)-2-hydroxy-4,5,9,9,13,20-hexamethyl-20-methylol-24-oxahexacyclo[15.5.2.01,18.04,17.05,14.08,13]tetracosan-10-yl]oxy]-5-[(2S,3R,4S,5S,6R)-3,4,5-trihydroxy-6-methylol-tetrahydropyran-2-yl]oxy-tetrahydropyran-3-yl]oxy-6-methylol-tetrahydropyran-3,4,5-triol

> <PUBCHEM_IUPAC_INCHI>
InChI=1S/C47H78O18/c1-41(2)25-7-11-44(5)26(8-12-47-27-15-42(3,20-50)13-14-46(27,21-60-47)28(51)16-45(44,47)6)43(25,4)10-9-29(41)64-40-37(65-39-36(58)34(56)31(53)23(18-49)62-39)32(54)24(19-59-40)63-38-35(57)33(55)30(52)22(17-48)61-38/h22-40,48-58H,7-21H2,1-6H3/t22-,23-,24+,25+,26-,27-,28-,29+,30-,31-,32+,33+,34+,35-,36-,37-,38+,39+,40+,42+,43+,44-,45+,46-,47+/m1/s1

> <PUBCHEM_IUPAC_INCHIKEY>
QMDCUVOUEVYVPH-CDLHYRBUSA-N

> <PUBCHEM_XLOGP3_AA>
0.6

> <PUBCHEM_EXACT_MASS>
930.518816

> <PUBCHEM_MOLECULAR_FORMULA>
C47H78O18

> <PUBCHEM_MOLECULAR_WEIGHT>
931.1

> <PUBCHEM_OPENEYE_CAN_SMILES>
CC1(C2CCC3(C(C2(CCC1OC4C(C(C(CO4)OC5C(C(C(C(O5)CO)O)O)O)O)OC6C(C(C(C(O6)CO)O)O)O)C)CCC78C3(CC(C9(C7CC(CC9)(C)CO)CO8)O)C)C)C

> <PUBCHEM_OPENEYE_ISO_SMILES>
C[C@@]1(CC[C@@]23CO[C@]4([C@@H]2C1)CC[C@@H]5[C@]6(CC[C@@H](C([C@@H]6CC[C@]5([C@@]4(C[C@H]3O)C)C)(C)C)O[C@H]7[C@@H]([C@H]([C@H](CO7)O[C@H]8[C@@H]([C@H]([C@@H]([C@H](O8)CO)O)O)O)O)O[C@H]9[C@@H]([C@H]([C@@H]([C@H](O9)CO)O)O)O)C)CO

> <PUBCHEM_CACTVS_TPSA>
287

> <PUBCHEM_MONOISOTOPIC_WEIGHT>
930.518816

> <PUBCHEM_TOTAL_CHARGE>
0

> <PUBCHEM_HEAVY_ATOM_COUNT>
65

> <PUBCHEM_ATOM_DEF_STEREO_COUNT>
25

> <PUBCHEM_ATOM_UDEF_STEREO_COUNT>
0

> <PUBCHEM_BOND_DEF_STEREO_COUNT>
0

> <PUBCHEM_BOND_UDEF_STEREO_COUNT>
0

> <PUBCHEM_ISOTOPIC_ATOM_COUNT>
0

> <PUBCHEM_COMPONENT_COUNT>
1

> <PUBCHEM_CACTVS_TAUTO_COUNT>
-1

> <PUBCHEM_COORDINATE_TYPE>
1
5
255

> <PUBCHEM_BONDANNOTATIONS>
55  10  6
57  12  5
59  13  6
60  14  6
61  15  5
64  17  6
19  36  6
28  2  6
20  27  5
21  37  5
22  66  5
23  34  5
24  67  6
25  42  5
43  3  5
49  3  6
30  75  6
38  46  6
58  62  5
50  6  5
54  6  5
63  65  5
51  7  6
53  8  6
56  8  5

$$$$
