16109778
  -OEChem-09092004262D

161170  0     1  0  0  0  0  0999 V2000
   14.1647    1.4879    0.0000 O   0  0  0  0  0  0  0  0  0  0  0  0
   15.9042    3.4817    0.0000 O   0  0  0  0  0  0  0  0  0  0  0  0
    6.8671    0.3495    0.0000 O   0  0  0  0  0  0  0  0  0  0  0  0
   15.6961    6.4236    0.0000 O   0  0  0  0  0  0  0  0  0  0  0  0
    7.7331   -1.1505    0.0000 O   0  0  0  0  0  0  0  0  0  0  0  0
    5.1350   -0.6505    0.0000 O   0  0  0  0  0  0  0  0  0  0  0  0
    5.1350   -2.6505    0.0000 O   0  0  0  0  0  0  0  0  0  0  0  0
    6.8671   -3.6505    0.0000 O   0  0  0  0  0  0  0  0  0  0  0  0
    6.0010    0.8495    0.0000 O   0  0  0  0  0  0  0  0  0  0  0  0
    5.1350   -3.6505    0.0000 O   0  0  0  0  0  0  0  0  0  0  0  0
    3.4030    0.3495    0.0000 O   0  0  0  0  0  0  0  0  0  0  0  0
    3.4030    2.3495    0.0000 O   0  0  0  0  0  0  0  0  0  0  0  0
    6.8671   -5.6505    0.0000 O   0  0  0  0  0  0  0  0  0  0  0  0
    5.1350    3.3495    0.0000 O   0  0  0  0  0  0  0  0  0  0  0  0
    5.1350   -6.6505    0.0000 O   0  0  0  0  0  0  0  0  0  0  0  0
    6.8671    3.3495    0.0000 O   0  0  0  0  0  0  0  0  0  0  0  0
    3.4030   -5.6505    0.0000 O   0  0  0  0  0  0  0  0  0  0  0  0
    7.7331   -4.1505    0.0000 O   0  0  0  0  0  0  0  0  0  0  0  0
    2.5369   -4.1505    0.0000 O   0  0  0  0  0  0  0  0  0  0  0  0
    8.5991   -6.6505    0.0000 O   0  0  0  0  0  0  0  0  0  0  0  0
   10.3312   -5.6505    0.0000 O   0  0  0  0  0  0  0  0  0  0  0  0
   10.3312   -3.6505    0.0000 O   0  0  0  0  0  0  0  0  0  0  0  0
   12.4363    2.4950    0.0000 C   0  0  2  0  0  0  0  0  0  0  0  0
   11.5403    1.9638    0.0000 C   0  0  1  0  0  0  0  0  0  0  0  0
   13.3004    1.9917    0.0000 C   0  0  2  0  0  0  0  0  0  0  0  0
   10.6362    2.4812    0.0000 C   0  0  1  0  0  0  0  0  0  0  0  0
   14.1683    2.4884    0.0000 C   0  0  2  0  0  0  0  0  0  0  0  0
   14.1722    3.4883    0.0000 C   0  0  2  0  0  0  0  0  0  0  0  0
    9.6903    1.9496    0.0000 C   0  0  2  0  0  0  0  0  0  0  0  0
   13.3081    3.9917    0.0000 C   0  0  2  0  0  0  0  0  0  0  0  0
   12.4401    3.4950    0.0000 C   0  0  0  0  0  0  0  0  0  0  0  0
    9.6862    0.8646    0.0000 C   0  0  1  0  0  0  0  0  0  0  0  0
   11.5612    0.8790    0.0000 C   0  0  0  0  0  0  0  0  0  0  0  0
   10.6402    3.5228    0.0000 C   0  0  0  0  0  0  0  0  0  0  0  0
   10.6279    0.3257    0.0000 C   0  0  0  0  0  0  0  0  0  0  0  0
   15.0841    3.9917    0.0000 C   0  0  0  0  0  0  0  0  0  0  0  0
    8.7140    0.2882    0.0000 C   0  0  0  0  0  0  0  0  0  0  0  0
   13.2960    5.0332    0.0000 C   0  0  0  0  0  0  0  0  0  0  0  0
   12.7748    1.5541    0.0000 C   0  0  0  0  0  0  0  0  0  0  0  0
   11.5482    4.0331    0.0000 C   0  0  0  0  0  0  0  0  0  0  0  0
   12.1860    1.2002    0.0000 C   0  0  0  0  0  0  0  0  0  0  0  0
    8.7227    2.5334    0.0000 C   0  0  0  0  0  0  0  0  0  0  0  0
   14.1961    5.5575    0.0000 C   0  0  2  0  0  0  0  0  0  0  0  0
   15.0362    2.9850    0.0000 C   0  0  0  0  0  0  0  0  0  0  0  0
   15.0961    5.0332    0.0000 C   0  0  0  0  0  0  0  0  0  0  0  0
    9.6942    2.9496    0.0000 C   0  0  0  0  0  0  0  0  0  0  0  0
    7.7331    0.8495    0.0000 C   0  0  2  0  0  0  0  0  0  0  0  0
    7.7374    1.9797    0.0000 C   0  0  0  0  0  0  0  0  0  0  0  0
    9.2207   -0.5739    0.0000 C   0  0  0  0  0  0  0  0  0  0  0  0
    8.2207   -0.5816    0.0000 C   0  0  0  0  0  0  0  0  0  0  0  0
   14.6961    6.4236    0.0000 C   0  0  0  0  0  0  0  0  0  0  0  0
   13.6961    6.4236    0.0000 C   0  0  0  0  0  0  0  0  0  0  0  0
    6.8671   -0.6505    0.0000 C   0  0  2  0  0  0  0  0  0  0  0  0
    6.0010   -1.1505    0.0000 C   0  0  1  0  0  0  0  0  0  0  0  0
    6.0010   -2.1505    0.0000 C   0  0  2  0  0  0  0  0  0  0  0  0
    7.7331   -2.1505    0.0000 C   0  0  0  0  0  0  0  0  0  0  0  0
    6.8671   -2.6505    0.0000 C   0  0  2  0  0  0  0  0  0  0  0  0
    5.1350    0.3495    0.0000 C   0  0  2  0  0  0  0  0  0  0  0  0
    4.2690    0.8495    0.0000 C   0  0  1  0  0  0  0  0  0  0  0  0
    6.0010   -4.1505    0.0000 C   0  0  2  0  0  0  0  0  0  0  0  0
    4.2690    1.8495    0.0000 C   0  0  2  0  0  0  0  0  0  0  0  0
    6.0010    1.8495    0.0000 C   0  0  1  0  0  0  0  0  0  0  0  0
    5.1350    2.3495    0.0000 C   0  0  1  0  0  0  0  0  0  0  0  0
    6.0010   -5.1505    0.0000 C   0  0  1  0  0  0  0  0  0  0  0  0
    5.1350   -5.6505    0.0000 C   0  0  2  0  0  0  0  0  0  0  0  0
    4.2690   -4.1505    0.0000 C   0  0  1  0  0  0  0  0  0  0  0  0
    6.8671    2.3495    0.0000 C   0  0  0  0  0  0  0  0  0  0  0  0
    4.2690   -5.1505    0.0000 C   0  0  1  0  0  0  0  0  0  0  0  0
    3.4030   -3.6505    0.0000 C   0  0  0  0  0  0  0  0  0  0  0  0
    7.7331   -5.1505    0.0000 C   0  0  2  0  0  0  0  0  0  0  0  0
    8.5991   -5.6505    0.0000 C   0  0  1  0  0  0  0  0  0  0  0  0
    9.4651   -5.1505    0.0000 C   0  0  1  0  0  0  0  0  0  0  0  0
    8.5991   -3.6505    0.0000 C   0  0  2  0  0  0  0  0  0  0  0  0
    9.4651   -4.1505    0.0000 C   0  0  2  0  0  0  0  0  0  0  0  0
    8.5991   -2.6505    0.0000 C   0  0  0  0  0  0  0  0  0  0  0  0
   12.9882    1.4560    0.0000 H   0  0  0  0  0  0  0  0  0  0  0  0
   11.3723    2.9061    0.0000 H   0  0  0  0  0  0  0  0  0  0  0  0
   14.7883    2.4860    0.0000 H   0  0  0  0  0  0  0  0  0  0  0  0
   14.0425    4.4195    0.0000 H   0  0  0  0  0  0  0  0  0  0  0  0
    9.6927    0.0146    0.0000 H   0  0  0  0  0  0  0  0  0  0  0  0
   11.7814    0.2995    0.0000 H   0  0  0  0  0  0  0  0  0  0  0  0
   12.1699    0.9969    0.0000 H   0  0  0  0  0  0  0  0  0  0  0  0
   10.4334    4.1073    0.0000 H   0  0  0  0  0  0  0  0  0  0  0  0
   10.0289    3.4190    0.0000 H   0  0  0  0  0  0  0  0  0  0  0  0
   10.2324   -0.1518    0.0000 H   0  0  0  0  0  0  0  0  0  0  0  0
   11.0307   -0.1456    0.0000 H   0  0  0  0  0  0  0  0  0  0  0  0
   15.2864    3.4056    0.0000 H   0  0  0  0  0  0  0  0  0  0  0  0
   15.6961    4.0907    0.0000 H   0  0  0  0  0  0  0  0  0  0  0  0
   13.0802    5.6145    0.0000 H   0  0  0  0  0  0  0  0  0  0  0  0
   12.6864    4.9201    0.0000 H   0  0  0  0  0  0  0  0  0  0  0  0
   12.1913    1.3442    0.0000 H   0  0  0  0  0  0  0  0  0  0  0  0
   12.9846    0.9707    0.0000 H   0  0  0  0  0  0  0  0  0  0  0  0
   13.3582    1.7639    0.0000 H   0  0  0  0  0  0  0  0  0  0  0  0
   11.5578    4.6530    0.0000 H   0  0  0  0  0  0  0  0  0  0  0  0
   11.7126    0.7999    0.0000 H   0  0  0  0  0  0  0  0  0  0  0  0
   12.5864    0.7268    0.0000 H   0  0  0  0  0  0  0  0  0  0  0  0
   12.6594    1.6006    0.0000 H   0  0  0  0  0  0  0  0  0  0  0  0
    9.1291    3.0016    0.0000 H   0  0  0  0  0  0  0  0  0  0  0  0
    8.3309    3.0139    0.0000 H   0  0  0  0  0  0  0  0  0  0  0  0
   14.6359    2.5116    0.0000 H   0  0  0  0  0  0  0  0  0  0  0  0
   15.4329    2.5085    0.0000 H   0  0  0  0  0  0  0  0  0  0  0  0
   15.7057    4.9201    0.0000 H   0  0  0  0  0  0  0  0  0  0  0  0
   15.3119    5.6145    0.0000 H   0  0  0  0  0  0  0  0  0  0  0  0
   10.3142    2.9472    0.0000 H   0  0  0  0  0  0  0  0  0  0  0  0
    9.6966    3.5695    0.0000 H   0  0  0  0  0  0  0  0  0  0  0  0
    9.0742    2.9519    0.0000 H   0  0  0  0  0  0  0  0  0  0  0  0
    7.1968    1.1606    0.0000 H   0  0  0  0  0  0  0  0  0  0  0  0
    7.5306    2.5642    0.0000 H   0  0  0  0  0  0  0  0  0  0  0  0
    7.1262    1.8759    0.0000 H   0  0  0  0  0  0  0  0  0  0  0  0
    8.6861   -0.8881    0.0000 H   0  0  0  0  0  0  0  0  0  0  0  0
    9.5348   -1.1085    0.0000 H   0  0  0  0  0  0  0  0  0  0  0  0
    9.7552   -0.2598    0.0000 H   0  0  0  0  0  0  0  0  0  0  0  0
    7.6814   -0.2758    0.0000 H   0  0  0  0  0  0  0  0  0  0  0  0
    7.9148   -1.1210    0.0000 H   0  0  0  0  0  0  0  0  0  0  0  0
    8.7600   -0.8875    0.0000 H   0  0  0  0  0  0  0  0  0  0  0  0
   14.8037    7.0341    0.0000 H   0  0  0  0  0  0  0  0  0  0  0  0
   14.1135    6.6356    0.0000 H   0  0  0  0  0  0  0  0  0  0  0  0
   14.2330    6.7336    0.0000 H   0  0  0  0  0  0  0  0  0  0  0  0
   13.3861    6.9605    0.0000 H   0  0  0  0  0  0  0  0  0  0  0  0
   13.1591    6.1136    0.0000 H   0  0  0  0  0  0  0  0  0  0  0  0
   16.4399    3.1696    0.0000 H   0  0  0  0  0  0  0  0  0  0  0  0
    6.3301   -0.3405    0.0000 H   0  0  0  0  0  0  0  0  0  0  0  0
   16.0061    6.9605    0.0000 H   0  0  0  0  0  0  0  0  0  0  0  0
    6.0010   -0.5305    0.0000 H   0  0  0  0  0  0  0  0  0  0  0  0
    6.0010   -2.7705    0.0000 H   0  0  0  0  0  0  0  0  0  0  0  0
    7.9451   -2.7331    0.0000 H   0  0  0  0  0  0  0  0  0  0  0  0
    8.3437   -2.0428    0.0000 H   0  0  0  0  0  0  0  0  0  0  0  0
    7.4040   -2.9605    0.0000 H   0  0  0  0  0  0  0  0  0  0  0  0
    4.5981    0.0395    0.0000 H   0  0  0  0  0  0  0  0  0  0  0  0
    4.5981   -2.3405    0.0000 H   0  0  0  0  0  0  0  0  0  0  0  0
    3.7320    1.1595    0.0000 H   0  0  0  0  0  0  0  0  0  0  0  0
    6.0010   -3.5305    0.0000 H   0  0  0  0  0  0  0  0  0  0  0  0
    4.2690    2.4695    0.0000 H   0  0  0  0  0  0  0  0  0  0  0  0
    6.5380    1.5395    0.0000 H   0  0  0  0  0  0  0  0  0  0  0  0
    5.6720    2.6595    0.0000 H   0  0  0  0  0  0  0  0  0  0  0  0
    6.5380   -4.8405    0.0000 H   0  0  0  0  0  0  0  0  0  0  0  0
    2.8660    0.6595    0.0000 H   0  0  0  0  0  0  0  0  0  0  0  0
    5.6720   -5.9605    0.0000 H   0  0  0  0  0  0  0  0  0  0  0  0
    4.2690   -3.5305    0.0000 H   0  0  0  0  0  0  0  0  0  0  0  0
    7.0791    1.7669    0.0000 H   0  0  0  0  0  0  0  0  0  0  0  0
    7.4776    2.4572    0.0000 H   0  0  0  0  0  0  0  0  0  0  0  0
    3.7320   -4.8405    0.0000 H   0  0  0  0  0  0  0  0  0  0  0  0
    3.4030    2.9695    0.0000 H   0  0  0  0  0  0  0  0  0  0  0  0
    5.6720    3.6595    0.0000 H   0  0  0  0  0  0  0  0  0  0  0  0
    3.8015   -3.1755    0.0000 H   0  0  0  0  0  0  0  0  0  0  0  0
    3.0044   -3.1755    0.0000 H   0  0  0  0  0  0  0  0  0  0  0  0
    7.1962   -4.8405    0.0000 H   0  0  0  0  0  0  0  0  0  0  0  0
    4.5981   -6.9605    0.0000 H   0  0  0  0  0  0  0  0  0  0  0  0
    7.4040    3.6595    0.0000 H   0  0  0  0  0  0  0  0  0  0  0  0
    3.4030   -6.2705    0.0000 H   0  0  0  0  0  0  0  0  0  0  0  0
    8.0622   -5.9605    0.0000 H   0  0  0  0  0  0  0  0  0  0  0  0
    2.0000   -3.8405    0.0000 H   0  0  0  0  0  0  0  0  0  0  0  0
    9.4651   -5.7705    0.0000 H   0  0  0  0  0  0  0  0  0  0  0  0
    8.0622   -3.3405    0.0000 H   0  0  0  0  0  0  0  0  0  0  0  0
   10.0021   -4.4605    0.0000 H   0  0  0  0  0  0  0  0  0  0  0  0
    9.1360   -6.9605    0.0000 H   0  0  0  0  0  0  0  0  0  0  0  0
    9.2191   -2.6505    0.0000 H   0  0  0  0  0  0  0  0  0  0  0  0
    8.5991   -2.0305    0.0000 H   0  0  0  0  0  0  0  0  0  0  0  0
    7.9791   -2.6505    0.0000 H   0  0  0  0  0  0  0  0  0  0  0  0
   10.8681   -5.3405    0.0000 H   0  0  0  0  0  0  0  0  0  0  0  0
   10.8681   -3.9605    0.0000 H   0  0  0  0  0  0  0  0  0  0  0  0
 25  1  1  6  0  0  0
 27  1  1  6  0  0  0
  2 44  1  0  0  0  0
  2121  1  0  0  0  0
 47  3  1  1  0  0  0
 53  3  1  6  0  0  0
  4 51  1  0  0  0  0
  4123  1  0  0  0  0
  5 53  1  0  0  0  0
  5 56  1  0  0  0  0
 54  6  1  1  0  0  0
 58  6  1  1  0  0  0
 55  7  1  6  0  0  0
  7130  1  0  0  0  0
 57  8  1  6  0  0  0
 60  8  1  1  0  0  0
  9 58  1  0  0  0  0
  9 62  1  0  0  0  0
 10 60  1  0  0  0  0
 10 66  1  0  0  0  0
 59 11  1  6  0  0  0
 11137  1  0  0  0  0
 61 12  1  1  0  0  0
 12143  1  0  0  0  0
 64 13  1  6  0  0  0
 70 13  1  6  0  0  0
 63 14  1  6  0  0  0
 14144  1  0  0  0  0
 65 15  1  1  0  0  0
 15148  1  0  0  0  0
 16 67  1  0  0  0  0
 16149  1  0  0  0  0
 68 17  1  6  0  0  0
 17150  1  0  0  0  0
 18 70  1  0  0  0  0
 18 73  1  0  0  0  0
 19 69  1  0  0  0  0
 19152  1  0  0  0  0
 71 20  1  1  0  0  0
 20156  1  0  0  0  0
 72 21  1  1  0  0  0
 21160  1  0  0  0  0
 74 22  1  6  0  0  0
 22161  1  0  0  0  0
 23 24  1  0  0  0  0
 23 25  1  0  0  0  0
 23 31  1  0  0  0  0
 23 39  1  6  0  0  0
 24 26  1  0  0  0  0
 24 33  1  0  0  0  0
 24 41  1  1  0  0  0
 25 27  1  0  0  0  0
 25 76  1  0  0  0  0
 26 29  1  0  0  0  0
 26 34  1  0  0  0  0
 26 77  1  6  0  0  0
 27 28  1  0  0  0  0
 27 78  1  0  0  0  0
 28 30  1  0  0  0  0
 28 36  1  0  0  0  0
 28 44  1  1  0  0  0
 29 32  1  0  0  0  0
 29 42  1  0  0  0  0
 29 46  1  1  0  0  0
 30 31  1  0  0  0  0
 30 38  1  0  0  0  0
 30 79  1  1  0  0  0
 31 40  2  0  0  0  0
 32 35  1  0  0  0  0
 32 37  1  0  0  0  0
 32 80  1  6  0  0  0
 33 35  1  0  0  0  0
 33 81  1  0  0  0  0
 33 82  1  0  0  0  0
 34 40  1  0  0  0  0
 34 83  1  0  0  0  0
 34 84  1  0  0  0  0
 35 85  1  0  0  0  0
 35 86  1  0  0  0  0
 36 45  1  0  0  0  0
 36 87  1  0  0  0  0
 36 88  1  0  0  0  0
 37 47  1  0  0  0  0
 37 49  1  0  0  0  0
 37 50  1  0  0  0  0
 38 43  1  0  0  0  0
 38 89  1  0  0  0  0
 38 90  1  0  0  0  0
 39 91  1  0  0  0  0
 39 92  1  0  0  0  0
 39 93  1  0  0  0  0
 40 94  1  0  0  0  0
 41 95  1  0  0  0  0
 41 96  1  0  0  0  0
 41 97  1  0  0  0  0
 42 48  1  0  0  0  0
 42 98  1  0  0  0  0
 42 99  1  0  0  0  0
 43 45  1  0  0  0  0
 43 51  1  0  0  0  0
 43 52  1  6  0  0  0
 44100  1  0  0  0  0
 44101  1  0  0  0  0
 45102  1  0  0  0  0
 45103  1  0  0  0  0
 46104  1  0  0  0  0
 46105  1  0  0  0  0
 46106  1  0  0  0  0
 47 48  1  0  0  0  0
 47107  1  0  0  0  0
 48108  1  0  0  0  0
 48109  1  0  0  0  0
 49110  1  0  0  0  0
 49111  1  0  0  0  0
 49112  1  0  0  0  0
 50113  1  0  0  0  0
 50114  1  0  0  0  0
 50115  1  0  0  0  0
 51116  1  0  0  0  0
 51117  1  0  0  0  0
 52118  1  0  0  0  0
 52119  1  0  0  0  0
 52120  1  0  0  0  0
 53 54  1  0  0  0  0
 53122  1  0  0  0  0
 54 55  1  0  0  0  0
 54124  1  0  0  0  0
 55 57  1  0  0  0  0
 55125  1  0  0  0  0
 56 57  1  0  0  0  0
 56126  1  0  0  0  0
 56127  1  0  0  0  0
 57128  1  0  0  0  0
 58 59  1  0  0  0  0
 58129  1  0  0  0  0
 59 61  1  0  0  0  0
 59131  1  0  0  0  0
 60 64  1  0  0  0  0
 60132  1  0  0  0  0
 61 63  1  0  0  0  0
 61133  1  0  0  0  0
 62 63  1  0  0  0  0
 62 67  1  1  0  0  0
 62134  1  0  0  0  0
 63135  1  0  0  0  0
 64 65  1  0  0  0  0
 64136  1  0  0  0  0
 65 68  1  0  0  0  0
 65138  1  0  0  0  0
 66 68  1  0  0  0  0
 66 69  1  1  0  0  0
 66139  1  0  0  0  0
 67140  1  0  0  0  0
 67141  1  0  0  0  0
 68142  1  0  0  0  0
 69145  1  0  0  0  0
 69146  1  0  0  0  0
 70 71  1  0  0  0  0
 70147  1  0  0  0  0
 71 72  1  0  0  0  0
 71151  1  0  0  0  0
 72 74  1  0  0  0  0
 72153  1  0  0  0  0
 73 74  1  0  0  0  0
 73 75  1  1  0  0  0
 73154  1  0  0  0  0
 74155  1  0  0  0  0
 75157  1  0  0  0  0
 75158  1  0  0  0  0
 75159  1  0  0  0  0
M  END
> <PUBCHEM_COMPOUND_CID>
16109778

> <PUBCHEM_COMPOUND_CANONICALIZED>
1

> <PUBCHEM_CACTVS_COMPLEXITY>
2070

> <PUBCHEM_CACTVS_HBOND_ACCEPTOR>
22

> <PUBCHEM_CACTVS_HBOND_DONOR>
13

> <PUBCHEM_CACTVS_ROTATABLE_BOND>
12

> <PUBCHEM_CACTVS_SUBSKEYS>
AAADcfB8PgAAAAAAAAAAAAAAEgAAAAAAAAA0aNGiBIAAAADAAAAAGgAACAAADxSwgAMCCAAABgCAAiBCAAAAAAAgAAAACAAAAAgREAIAAQAiQAAFwAAPAAPA4PwPgAAAAAAAAADAAAYAADAAAAAAAAAAAA==

> <PUBCHEM_IUPAC_OPENEYE_NAME>
(2S,3R,4R,5R,6S)-2-[(2S,3R,4S,5S,6R)-2-[(3S,4S,5R,6S)-6-[[(1S,2R,5R,7S,10R,11R,15S,17S,20S,21S,23R)-17,20-bis(hydroxymethyl)-1,2,6,6,10,17-hexamethyl-22-oxahexacyclo[12.9.0.02,11.05,10.015,20.021,23]tricos-13-en-7-yl]oxy]-4-hydroxy-5-[(2S,3R,4S,5S,6R)-3,4,5-trihydroxy-6-(hydroxymethyl)tetrahydropyran-2-yl]oxy-tetrahydropyran-3-yl]oxy-4,5-dihydroxy-6-(hydroxymethyl)tetrahydropyran-3-yl]oxy-6-methyl-tetrahydropyran-3,4,5-triol

> <PUBCHEM_IUPAC_CAS_NAME>
(2S,3R,4R,5R,6S)-2-[[(2S,3R,4S,5S,6R)-2-[[(3S,4S,5R,6S)-6-[[(1S,2R,5R,7S,10R,11R,15S,17S,20S,21S,23R)-17,20-bis(hydroxymethyl)-1,2,6,6,10,17-hexamethyl-22-oxahexacyclo[12.9.0.02,11.05,10.015,20.021,23]tricos-13-en-7-yl]oxy]-4-hydroxy-5-[[(2S,3R,4S,5S,6R)-3,4,5-trihydroxy-6-(hydroxymethyl)-2-oxanyl]oxy]-3-oxanyl]oxy]-4,5-dihydroxy-6-(hydroxymethyl)-3-oxanyl]oxy]-6-methyloxane-3,4,5-triol

> <PUBCHEM_IUPAC_NAME_MARKUP>
(2<I>S</I>,3<I>R</I>,4<I>R</I>,5<I>R</I>,6<I>S</I>)-2-[(2<I>S</I>,3<I>R</I>,4<I>S</I>,5<I>S</I>,6<I>R</I>)-2-[(3<I>S</I>,4<I>S</I>,5<I>R</I>,6<I>S</I>)-6-[[(1<I>S</I>,2<I>R</I>,5<I>R</I>,7<I>S</I>,10<I>R</I>,11<I>R</I>,15<I>S</I>,17<I>S</I>,20<I>S</I>,21<I>S</I>,23<I>R</I>)-17,20-bis(hydroxymethyl)-1,2,6,6,10,17-hexamethyl-22-oxahexacyclo[12.9.0.0<SUP>2,11</SUP>.0<SUP>5,10</SUP>.0<SUP>15,20</SUP>.0<SUP>21,23</SUP>]tricos-13-en-7-yl]oxy]-4-hydroxy-5-[(2<I>S</I>,3<I>R</I>,4<I>S</I>,5<I>S</I>,6<I>R</I>)-3,4,5-trihydroxy-6-(hydroxymethyl)oxan-2-yl]oxyoxan-3-yl]oxy-4,5-dihydroxy-6-(hydroxymethyl)oxan-3-yl]oxy-6-methyloxane-3,4,5-triol

> <PUBCHEM_IUPAC_NAME>
(2S,3R,4R,5R,6S)-2-[(2S,3R,4S,5S,6R)-2-[(3S,4S,5R,6S)-6-[[(1S,2R,5R,7S,10R,11R,15S,17S,20S,21S,23R)-17,20-bis(hydroxymethyl)-1,2,6,6,10,17-hexamethyl-22-oxahexacyclo[12.9.0.02,11.05,10.015,20.021,23]tricos-13-en-7-yl]oxy]-4-hydroxy-5-[(2S,3R,4S,5S,6R)-3,4,5-trihydroxy-6-(hydroxymethyl)oxan-2-yl]oxyoxan-3-yl]oxy-4,5-dihydroxy-6-(hydroxymethyl)oxan-3-yl]oxy-6-methyloxane-3,4,5-triol

> <PUBCHEM_IUPAC_SYSTEMATIC_NAME>
(2S,3R,4R,5R,6S)-2-[(2S,3R,4S,5S,6R)-2-[(3S,4S,5R,6S)-6-[[(1S,2R,5R,7S,10R,11R,15S,17S,20S,21S,23R)-17,20-bis(hydroxymethyl)-1,2,6,6,10,17-hexamethyl-22-oxahexacyclo[12.9.0.02,11.05,10.015,20.021,23]tricos-13-en-7-yl]oxy]-5-[(2S,3R,4S,5S,6R)-6-(hydroxymethyl)-3,4,5-tris(oxidanyl)oxan-2-yl]oxy-4-oxidanyl-oxan-3-yl]oxy-6-(hydroxymethyl)-4,5-bis(oxidanyl)oxan-3-yl]oxy-6-methyl-oxane-3,4,5-triol

> <PUBCHEM_IUPAC_TRADITIONAL_NAME>
(2S,3R,4R,5R,6S)-2-[(2S,3R,4S,5S,6R)-2-[(3S,4S,5R,6S)-6-[[(1S,2R,5R,7S,10R,11R,15S,17S,20S,21S,23R)-1,2,6,6,10,17-hexamethyl-17,20-dimethylol-22-oxahexacyclo[12.9.0.02,11.05,10.015,20.021,23]tricos-13-en-7-yl]oxy]-4-hydroxy-5-[(2S,3R,4S,5S,6R)-3,4,5-trihydroxy-6-methylol-tetrahydropyran-2-yl]oxy-tetrahydropyran-3-yl]oxy-4,5-dihydroxy-6-methylol-tetrahydropyran-3-yl]oxy-6-methyl-tetrahydropyran-3,4,5-triol

> <PUBCHEM_IUPAC_INCHI>
InChI=1S/C53H86O22/c1-22-31(58)35(62)38(65)44(68-22)74-41-37(64)33(60)26(18-55)70-47(41)71-27-19-67-46(40(34(27)61)73-45-39(66)36(63)32(59)25(17-54)69-45)72-30-11-12-50(5)28(48(30,2)3)10-13-51(6)29(50)9-8-23-24-16-49(4,20-56)14-15-53(24,21-57)43-42(75-43)52(23,51)7/h8,22,24-47,54-66H,9-21H2,1-7H3/t22-,24-,25+,26+,27-,28-,29+,30-,31-,32+,33+,34-,35+,36-,37-,38+,39+,40+,41+,42-,43+,44-,45-,46-,47-,49-,50-,51+,52-,53+/m0/s1

> <PUBCHEM_IUPAC_INCHIKEY>
WLCKGGTZSALHSX-AQYMXCBLSA-N

> <PUBCHEM_XLOGP3_AA>
-1

> <PUBCHEM_EXACT_MASS>
1074.561074

> <PUBCHEM_MOLECULAR_FORMULA>
C53H86O22

> <PUBCHEM_MOLECULAR_WEIGHT>
1075.2

> <PUBCHEM_OPENEYE_CAN_SMILES>
CC1C(C(C(C(O1)OC2C(C(C(OC2OC3COC(C(C3O)OC4C(C(C(C(O4)CO)O)O)O)OC5CCC6(C(C5(C)C)CCC7(C6CC=C8C7(C9C(O9)C1(C8CC(CC1)(C)CO)CO)C)C)C)CO)O)O)O)O)O

> <PUBCHEM_OPENEYE_ISO_SMILES>
C[C@H]1[C@@H]([C@H]([C@H]([C@@H](O1)O[C@@H]2[C@H]([C@@H]([C@H](O[C@H]2O[C@H]3CO[C@H]([C@@H]([C@H]3O)O[C@H]4[C@@H]([C@H]([C@@H]([C@H](O4)CO)O)O)O)O[C@H]5CC[C@]6([C@H](C5(C)C)CC[C@@]7([C@@H]6CC=C8[C@]7([C@@H]9[C@@H](O9)[C@@]1([C@H]8C[C@@](CC1)(C)CO)CO)C)C)C)CO)O)O)O)O)O

> <PUBCHEM_CACTVS_TPSA>
349

> <PUBCHEM_MONOISOTOPIC_WEIGHT>
1074.561074

> <PUBCHEM_TOTAL_CHARGE>
0

> <PUBCHEM_HEAVY_ATOM_COUNT>
75

> <PUBCHEM_ATOM_DEF_STEREO_COUNT>
30

> <PUBCHEM_ATOM_UDEF_STEREO_COUNT>
0

> <PUBCHEM_BOND_DEF_STEREO_COUNT>
0

> <PUBCHEM_BOND_UDEF_STEREO_COUNT>
0

> <PUBCHEM_ISOTOPIC_ATOM_COUNT>
0

> <PUBCHEM_COMPONENT_COUNT>
1

> <PUBCHEM_CACTVS_TAUTO_COUNT>
-1

> <PUBCHEM_COORDINATE_TYPE>
1
5
255

> <PUBCHEM_BONDANNOTATIONS>
25  1  6
27  1  6
59  11  6
61  12  5
64  13  6
70  13  6
63  14  6
65  15  5
68  17  6
71  20  5
72  21  5
74  22  6
23  39  6
24  41  5
26  77  6
28  44  5
29  46  5
47  3  5
53  3  6
30  79  5
32  80  6
43  52  6
54  6  5
58  6  5
62  67  5
66  69  5
55  7  6
73  75  5
57  8  6
60  8  5

$$$$
