16109780
  -OEChem-09092004212D

141149  0     1  0  0  0  0  0999 V2000
   12.2620    4.2310    0.0000 O   0  0  0  0  0  0  0  0  0  0  0  0
   12.3661    6.6278    0.0000 O   0  0  0  0  0  0  0  0  0  0  0  0
    6.8671    0.3742    0.0000 O   0  0  0  0  0  0  0  0  0  0  0  0
    7.7331   -1.1258    0.0000 O   0  0  0  0  0  0  0  0  0  0  0  0
    5.1350   -0.6258    0.0000 O   0  0  0  0  0  0  0  0  0  0  0  0
    5.1350   -2.6258    0.0000 O   0  0  0  0  0  0  0  0  0  0  0  0
    6.8671   -3.6258    0.0000 O   0  0  0  0  0  0  0  0  0  0  0  0
    5.1350   -3.6258    0.0000 O   0  0  0  0  0  0  0  0  0  0  0  0
    6.8671   -5.6258    0.0000 O   0  0  0  0  0  0  0  0  0  0  0  0
    5.1350   -6.6258    0.0000 O   0  0  0  0  0  0  0  0  0  0  0  0
    3.4030   -5.6258    0.0000 O   0  0  0  0  0  0  0  0  0  0  0  0
    7.7331   -4.1258    0.0000 O   0  0  0  0  0  0  0  0  0  0  0  0
    2.5369   -4.1258    0.0000 O   0  0  0  0  0  0  0  0  0  0  0  0
    8.5991   -6.6258    0.0000 O   0  0  0  0  0  0  0  0  0  0  0  0
   10.3312   -5.6258    0.0000 O   0  0  0  0  0  0  0  0  0  0  0  0
   10.3312   -3.6258    0.0000 O   0  0  0  0  0  0  0  0  0  0  0  0
   11.5097    4.1245    0.0000 C   0  0  2  0  0  0  0  0  0  0  0  0
   12.3777    3.6279    0.0000 C   0  0  2  0  0  0  0  0  0  0  0  0
   10.6017    3.6142    0.0000 C   0  0  1  0  0  0  0  0  0  0  0  0
   13.2418    4.1312    0.0000 C   0  0  1  0  0  0  0  0  0  0  0  0
   13.2379    5.1312    0.0000 C   0  0  2  0  0  0  0  0  0  0  0  0
   10.5977    2.5726    0.0000 C   0  0  1  0  0  0  0  0  0  0  0  0
    9.6644    2.0192    0.0000 C   0  0  2  0  0  0  0  0  0  0  0  0
   11.5059    5.1245    0.0000 C   0  0  0  0  0  0  0  0  0  0  0  0
   12.3978    2.5864    0.0000 C   0  0  0  0  0  0  0  0  0  0  0  0
   12.3700    5.6279    0.0000 C   0  0  1  0  0  0  0  0  0  0  0  0
   11.5018    2.0552    0.0000 C   0  0  0  0  0  0  0  0  0  0  0  0
    8.7227    2.5581    0.0000 C   0  0  1  0  0  0  0  0  0  0  0  0
    9.6727    4.1747    0.0000 C   0  0  0  0  0  0  0  0  0  0  0  0
   12.6593    4.9254    0.0000 C   0  0  0  0  0  0  0  0  0  0  0  0
   14.1378    3.6000    0.0000 C   0  0  0  0  0  0  0  0  0  0  0  0
   14.1298    5.6693    0.0000 C   0  0  0  0  0  0  0  0  0  0  0  0
    8.7268    3.6431    0.0000 C   0  0  0  0  0  0  0  0  0  0  0  0
   10.8640    4.8881    0.0000 C   0  0  0  0  0  0  0  0  0  0  0  0
   10.2633    4.5552    0.0000 C   0  0  0  0  0  0  0  0  0  0  0  0
   15.0418    4.1173    0.0000 C   0  0  0  0  0  0  0  0  0  0  0  0
    7.7374    2.0044    0.0000 C   0  0  0  0  0  0  0  0  0  0  0  0
    9.6862    0.8893    0.0000 C   0  0  0  0  0  0  0  0  0  0  0  0
   15.0378    5.1590    0.0000 C   0  0  0  0  0  0  0  0  0  0  0  0
   10.5323    1.5226    0.0000 C   0  0  0  0  0  0  0  0  0  0  0  0
    7.7331    0.8742    0.0000 C   0  0  2  0  0  0  0  0  0  0  0  0
    8.7140    0.3129    0.0000 C   0  0  0  0  0  0  0  0  0  0  0  0
   16.0418    4.1173    0.0000 C   0  0  0  0  0  0  0  0  0  0  0  0
   15.5418    3.2513    0.0000 C   0  0  0  0  0  0  0  0  0  0  0  0
    7.2441    2.8742    0.0000 C   0  0  0  0  0  0  0  0  0  0  0  0
    6.7375    2.0121    0.0000 C   0  0  0  0  0  0  0  0  0  0  0  0
    6.8671   -0.6258    0.0000 C   0  0  2  0  0  0  0  0  0  0  0  0
    6.0010   -1.1258    0.0000 C   0  0  1  0  0  0  0  0  0  0  0  0
    6.0010   -2.1258    0.0000 C   0  0  2  0  0  0  0  0  0  0  0  0
    7.7331   -2.1258    0.0000 C   0  0  0  0  0  0  0  0  0  0  0  0
    6.8671   -2.6258    0.0000 C   0  0  2  0  0  0  0  0  0  0  0  0
    6.0010   -4.1258    0.0000 C   0  0  2  0  0  0  0  0  0  0  0  0
    6.0010   -5.1258    0.0000 C   0  0  1  0  0  0  0  0  0  0  0  0
    5.1350   -5.6258    0.0000 C   0  0  2  0  0  0  0  0  0  0  0  0
    4.2690   -4.1258    0.0000 C   0  0  1  0  0  0  0  0  0  0  0  0
    4.2690   -5.1258    0.0000 C   0  0  1  0  0  0  0  0  0  0  0  0
    3.4030   -3.6258    0.0000 C   0  0  0  0  0  0  0  0  0  0  0  0
    7.7331   -5.1258    0.0000 C   0  0  2  0  0  0  0  0  0  0  0  0
    8.5991   -5.6258    0.0000 C   0  0  1  0  0  0  0  0  0  0  0  0
    9.4651   -5.1258    0.0000 C   0  0  1  0  0  0  0  0  0  0  0  0
    8.5991   -3.6258    0.0000 C   0  0  2  0  0  0  0  0  0  0  0  0
    9.4651   -4.1258    0.0000 C   0  0  2  0  0  0  0  0  0  0  0  0
    8.5991   -2.6258    0.0000 C   0  0  0  0  0  0  0  0  0  0  0  0
   13.2450    3.2812    0.0000 H   0  0  0  0  0  0  0  0  0  0  0  0
   10.6042    1.7226    0.0000 H   0  0  0  0  0  0  0  0  0  0  0  0
   11.2916    5.7063    0.0000 H   0  0  0  0  0  0  0  0  0  0  0  0
   10.8957    5.0145    0.0000 H   0  0  0  0  0  0  0  0  0  0  0  0
   12.6180    2.0069    0.0000 H   0  0  0  0  0  0  0  0  0  0  0  0
   13.0065    2.7043    0.0000 H   0  0  0  0  0  0  0  0  0  0  0  0
   12.9057    5.9399    0.0000 H   0  0  0  0  0  0  0  0  0  0  0  0
   11.1063    1.5777    0.0000 H   0  0  0  0  0  0  0  0  0  0  0  0
   11.9045    1.5839    0.0000 H   0  0  0  0  0  0  0  0  0  0  0  0
    7.9898    2.9888    0.0000 H   0  0  0  0  0  0  0  0  0  0  0  0
   10.0791    4.6429    0.0000 H   0  0  0  0  0  0  0  0  0  0  0  0
    9.2809    4.6552    0.0000 H   0  0  0  0  0  0  0  0  0  0  0  0
   12.6255    5.5445    0.0000 H   0  0  0  0  0  0  0  0  0  0  0  0
   12.0560    5.0683    0.0000 H   0  0  0  0  0  0  0  0  0  0  0  0
   13.7350    3.1286    0.0000 H   0  0  0  0  0  0  0  0  0  0  0  0
   14.5332    3.1225    0.0000 H   0  0  0  0  0  0  0  0  0  0  0  0
   14.5216    6.1498    0.0000 H   0  0  0  0  0  0  0  0  0  0  0  0
   13.7234    6.1375    0.0000 H   0  0  0  0  0  0  0  0  0  0  0  0
    8.5200    4.2276    0.0000 H   0  0  0  0  0  0  0  0  0  0  0  0
    8.1156    3.5394    0.0000 H   0  0  0  0  0  0  0  0  0  0  0  0
   11.3374    5.2884    0.0000 H   0  0  0  0  0  0  0  0  0  0  0  0
   10.4636    5.3615    0.0000 H   0  0  0  0  0  0  0  0  0  0  0  0
   10.3906    4.4877    0.0000 H   0  0  0  0  0  0  0  0  0  0  0  0
   10.8467    4.7650    0.0000 H   0  0  0  0  0  0  0  0  0  0  0  0
   10.0535    5.1386    0.0000 H   0  0  0  0  0  0  0  0  0  0  0  0
    9.6799    4.3454    0.0000 H   0  0  0  0  0  0  0  0  0  0  0  0
    9.9064    0.3097    0.0000 H   0  0  0  0  0  0  0  0  0  0  0  0
   10.2949    1.0071    0.0000 H   0  0  0  0  0  0  0  0  0  0  0  0
   15.6491    5.0552    0.0000 H   0  0  0  0  0  0  0  0  0  0  0  0
   15.2446    5.7434    0.0000 H   0  0  0  0  0  0  0  0  0  0  0  0
   10.2244    0.9844    0.0000 H   0  0  0  0  0  0  0  0  0  0  0  0
   11.0705    1.2146    0.0000 H   0  0  0  0  0  0  0  0  0  0  0  0
   10.8403    2.0607    0.0000 H   0  0  0  0  0  0  0  0  0  0  0  0
    7.1968    1.1853    0.0000 H   0  0  0  0  0  0  0  0  0  0  0  0
    8.3185   -0.1646    0.0000 H   0  0  0  0  0  0  0  0  0  0  0  0
    9.1168   -0.1584    0.0000 H   0  0  0  0  0  0  0  0  0  0  0  0
   11.8280    6.9358    0.0000 H   0  0  0  0  0  0  0  0  0  0  0  0
   16.0418    3.4973    0.0000 H   0  0  0  0  0  0  0  0  0  0  0  0
   16.6618    4.1173    0.0000 H   0  0  0  0  0  0  0  0  0  0  0  0
   16.0418    4.7373    0.0000 H   0  0  0  0  0  0  0  0  0  0  0  0
   15.0049    2.9413    0.0000 H   0  0  0  0  0  0  0  0  0  0  0  0
   15.8518    2.7144    0.0000 H   0  0  0  0  0  0  0  0  0  0  0  0
   16.0788    3.5613    0.0000 H   0  0  0  0  0  0  0  0  0  0  0  0
    7.7834    3.1801    0.0000 H   0  0  0  0  0  0  0  0  0  0  0  0
    6.9383    3.4135    0.0000 H   0  0  0  0  0  0  0  0  0  0  0  0
    6.7048    2.5684    0.0000 H   0  0  0  0  0  0  0  0  0  0  0  0
    6.7422    2.6321    0.0000 H   0  0  0  0  0  0  0  0  0  0  0  0
    6.1175    2.0169    0.0000 H   0  0  0  0  0  0  0  0  0  0  0  0
    6.7327    1.3921    0.0000 H   0  0  0  0  0  0  0  0  0  0  0  0
    6.3301   -0.3158    0.0000 H   0  0  0  0  0  0  0  0  0  0  0  0
    6.0010   -0.5058    0.0000 H   0  0  0  0  0  0  0  0  0  0  0  0
    6.0010   -2.7458    0.0000 H   0  0  0  0  0  0  0  0  0  0  0  0
    7.9451   -2.7084    0.0000 H   0  0  0  0  0  0  0  0  0  0  0  0
    8.3437   -2.0181    0.0000 H   0  0  0  0  0  0  0  0  0  0  0  0
    7.4040   -2.9358    0.0000 H   0  0  0  0  0  0  0  0  0  0  0  0
    5.1350   -0.0058    0.0000 H   0  0  0  0  0  0  0  0  0  0  0  0
    4.5981   -2.3158    0.0000 H   0  0  0  0  0  0  0  0  0  0  0  0
    6.0010   -3.5058    0.0000 H   0  0  0  0  0  0  0  0  0  0  0  0
    6.0010   -5.7458    0.0000 H   0  0  0  0  0  0  0  0  0  0  0  0
    4.5981   -5.9358    0.0000 H   0  0  0  0  0  0  0  0  0  0  0  0
    4.2690   -3.5058    0.0000 H   0  0  0  0  0  0  0  0  0  0  0  0
    4.2690   -5.7458    0.0000 H   0  0  0  0  0  0  0  0  0  0  0  0
    3.8015   -3.1508    0.0000 H   0  0  0  0  0  0  0  0  0  0  0  0
    3.0044   -3.1508    0.0000 H   0  0  0  0  0  0  0  0  0  0  0  0
    7.1962   -4.8158    0.0000 H   0  0  0  0  0  0  0  0  0  0  0  0
    4.5981   -6.9358    0.0000 H   0  0  0  0  0  0  0  0  0  0  0  0
    3.4030   -6.2458    0.0000 H   0  0  0  0  0  0  0  0  0  0  0  0
    8.0622   -5.9358    0.0000 H   0  0  0  0  0  0  0  0  0  0  0  0
    2.0000   -3.8158    0.0000 H   0  0  0  0  0  0  0  0  0  0  0  0
   10.0021   -4.8158    0.0000 H   0  0  0  0  0  0  0  0  0  0  0  0
    8.0622   -3.3158    0.0000 H   0  0  0  0  0  0  0  0  0  0  0  0
    9.4651   -3.5058    0.0000 H   0  0  0  0  0  0  0  0  0  0  0  0
    9.1360   -6.9358    0.0000 H   0  0  0  0  0  0  0  0  0  0  0  0
    9.2191   -2.6258    0.0000 H   0  0  0  0  0  0  0  0  0  0  0  0
    8.5991   -2.0058    0.0000 H   0  0  0  0  0  0  0  0  0  0  0  0
    7.9791   -2.6258    0.0000 H   0  0  0  0  0  0  0  0  0  0  0  0
   10.8681   -5.3158    0.0000 H   0  0  0  0  0  0  0  0  0  0  0  0
   10.8681   -3.9358    0.0000 H   0  0  0  0  0  0  0  0  0  0  0  0
  1 18  1  0  0  0  0
  1 30  1  0  0  0  0
 26  2  1  1  0  0  0
  2100  1  0  0  0  0
 41  3  1  6  0  0  0
 47  3  1  6  0  0  0
  4 47  1  0  0  0  0
  4 50  1  0  0  0  0
 48  5  1  1  0  0  0
  5119  1  0  0  0  0
 49  6  1  6  0  0  0
  6120  1  0  0  0  0
 51  7  1  6  0  0  0
 52  7  1  1  0  0  0
  8 52  1  0  0  0  0
  8 55  1  0  0  0  0
 53  9  1  6  0  0  0
 58  9  1  6  0  0  0
 54 10  1  1  0  0  0
 10129  1  0  0  0  0
 56 11  1  6  0  0  0
 11130  1  0  0  0  0
 12 58  1  0  0  0  0
 12 61  1  0  0  0  0
 13 57  1  0  0  0  0
 13132  1  0  0  0  0
 59 14  1  1  0  0  0
 14136  1  0  0  0  0
 60 15  1  1  0  0  0
 15140  1  0  0  0  0
 62 16  1  6  0  0  0
 16141  1  0  0  0  0
 17 18  1  0  0  0  0
 17 19  1  0  0  0  0
 17 24  1  0  0  0  0
 17 34  1  1  0  0  0
 18 20  1  0  0  0  0
 18 25  1  6  0  0  0
 19 22  1  0  0  0  0
 19 29  1  0  0  0  0
 19 35  1  6  0  0  0
 20 21  1  0  0  0  0
 20 31  1  0  0  0  0
 20 64  1  6  0  0  0
 21 26  1  0  0  0  0
 21 30  1  0  0  0  0
 21 32  1  6  0  0  0
 22 23  1  0  0  0  0
 22 27  1  0  0  0  0
 22 65  1  1  0  0  0
 23 28  1  0  0  0  0
 23 38  1  0  0  0  0
 23 40  1  6  0  0  0
 24 26  1  0  0  0  0
 24 66  1  0  0  0  0
 24 67  1  0  0  0  0
 25 27  1  0  0  0  0
 25 68  1  0  0  0  0
 25 69  1  0  0  0  0
 26 70  1  0  0  0  0
 27 71  1  0  0  0  0
 27 72  1  0  0  0  0
 28 33  1  0  0  0  0
 28 37  1  0  0  0  0
 28 73  1  1  0  0  0
 29 33  1  0  0  0  0
 29 74  1  0  0  0  0
 29 75  1  0  0  0  0
 30 76  1  0  0  0  0
 30 77  1  0  0  0  0
 31 36  1  0  0  0  0
 31 78  1  0  0  0  0
 31 79  1  0  0  0  0
 32 39  1  0  0  0  0
 32 80  1  0  0  0  0
 32 81  1  0  0  0  0
 33 82  1  0  0  0  0
 33 83  1  0  0  0  0
 34 84  1  0  0  0  0
 34 85  1  0  0  0  0
 34 86  1  0  0  0  0
 35 87  1  0  0  0  0
 35 88  1  0  0  0  0
 35 89  1  0  0  0  0
 36 39  1  0  0  0  0
 36 43  1  0  0  0  0
 36 44  1  0  0  0  0
 37 41  1  0  0  0  0
 37 45  1  0  0  0  0
 37 46  1  0  0  0  0
 38 42  1  0  0  0  0
 38 90  1  0  0  0  0
 38 91  1  0  0  0  0
 39 92  1  0  0  0  0
 39 93  1  0  0  0  0
 40 94  1  0  0  0  0
 40 95  1  0  0  0  0
 40 96  1  0  0  0  0
 41 42  1  0  0  0  0
 41 97  1  0  0  0  0
 42 98  1  0  0  0  0
 42 99  1  0  0  0  0
 43101  1  0  0  0  0
 43102  1  0  0  0  0
 43103  1  0  0  0  0
 44104  1  0  0  0  0
 44105  1  0  0  0  0
 44106  1  0  0  0  0
 45107  1  0  0  0  0
 45108  1  0  0  0  0
 45109  1  0  0  0  0
 46110  1  0  0  0  0
 46111  1  0  0  0  0
 46112  1  0  0  0  0
 47 48  1  0  0  0  0
 47113  1  0  0  0  0
 48 49  1  0  0  0  0
 48114  1  0  0  0  0
 49 51  1  0  0  0  0
 49115  1  0  0  0  0
 50 51  1  0  0  0  0
 50116  1  0  0  0  0
 50117  1  0  0  0  0
 51118  1  0  0  0  0
 52 53  1  0  0  0  0
 52121  1  0  0  0  0
 53 54  1  0  0  0  0
 53122  1  0  0  0  0
 54 56  1  0  0  0  0
 54123  1  0  0  0  0
 55 56  1  0  0  0  0
 55 57  1  1  0  0  0
 55124  1  0  0  0  0
 56125  1  0  0  0  0
 57126  1  0  0  0  0
 57127  1  0  0  0  0
 58 59  1  0  0  0  0
 58128  1  0  0  0  0
 59 60  1  0  0  0  0
 59131  1  0  0  0  0
 60 62  1  0  0  0  0
 60133  1  0  0  0  0
 61 62  1  0  0  0  0
 61 63  1  1  0  0  0
 61134  1  0  0  0  0
 62135  1  0  0  0  0
 63137  1  0  0  0  0
 63138  1  0  0  0  0
 63139  1  0  0  0  0
M  END
> <PUBCHEM_COMPOUND_CID>
16109780

> <PUBCHEM_COMPOUND_CANONICALIZED>
1

> <PUBCHEM_CACTVS_COMPLEXITY>
1680

> <PUBCHEM_CACTVS_HBOND_ACCEPTOR>
16

> <PUBCHEM_CACTVS_HBOND_DONOR>
9

> <PUBCHEM_CACTVS_ROTATABLE_BOND>
7

> <PUBCHEM_CACTVS_SUBSKEYS>
AAADcfB8PgAAAAAAAAAAAAAAAAAAASAAAAA0aNGDBIAAAEjAAAAAGgAACAAAD1SwgAMCCAAABgAAAAAAAAAAAAAAAAAAAAAAAAAREAIAAAAiQAAFAAAHAAHA4PwPgAAAAAAAAADCAAYAADAAAAAAAAAAAA==

> <PUBCHEM_IUPAC_OPENEYE_NAME>
(2S,3R,4R,5R,6S)-2-[(2S,3R,4S,5S,6R)-2-[(3S,4R,5R,6S)-4,5-dihydroxy-6-[[(1S,2R,4S,5R,8R,10S,13R,14R,17S,18R)-2-hydroxy-4,5,9,9,13,20,20-heptamethyl-24-oxahexacyclo[15.5.2.01,18.04,17.05,14.08,13]tetracosan-10-yl]oxy]tetrahydropyran-3-yl]oxy-4,5-dihydroxy-6-(hydroxymethyl)tetrahydropyran-3-yl]oxy-6-methyl-tetrahydropyran-3,4,5-triol

> <PUBCHEM_IUPAC_CAS_NAME>
(2S,3R,4R,5R,6S)-2-[[(2S,3R,4S,5S,6R)-2-[[(3S,4R,5R,6S)-4,5-dihydroxy-6-[[(1S,2R,4S,5R,8R,10S,13R,14R,17S,18R)-2-hydroxy-4,5,9,9,13,20,20-heptamethyl-24-oxahexacyclo[15.5.2.01,18.04,17.05,14.08,13]tetracosan-10-yl]oxy]-3-oxanyl]oxy]-4,5-dihydroxy-6-(hydroxymethyl)-3-oxanyl]oxy]-6-methyloxane-3,4,5-triol

> <PUBCHEM_IUPAC_NAME_MARKUP>
(2<I>S</I>,3<I>R</I>,4<I>R</I>,5<I>R</I>,6<I>S</I>)-2-[(2<I>S</I>,3<I>R</I>,4<I>S</I>,5<I>S</I>,6<I>R</I>)-2-[(3<I>S</I>,4<I>R</I>,5<I>R</I>,6<I>S</I>)-4,5-dihydroxy-6-[[(1<I>S</I>,2<I>R</I>,4<I>S</I>,5<I>R</I>,8<I>R</I>,10<I>S</I>,13<I>R</I>,14<I>R</I>,17<I>S</I>,18<I>R</I>)-2-hydroxy-4,5,9,9,13,20,20-heptamethyl-24-oxahexacyclo[15.5.2.0<SUP>1,18</SUP>.0<SUP>4,17</SUP>.0<SUP>5,14</SUP>.0<SUP>8,13</SUP>]tetracosan-10-yl]oxy]oxan-3-yl]oxy-4,5-dihydroxy-6-(hydroxymethyl)oxan-3-yl]oxy-6-methyloxane-3,4,5-triol

> <PUBCHEM_IUPAC_NAME>
(2S,3R,4R,5R,6S)-2-[(2S,3R,4S,5S,6R)-2-[(3S,4R,5R,6S)-4,5-dihydroxy-6-[[(1S,2R,4S,5R,8R,10S,13R,14R,17S,18R)-2-hydroxy-4,5,9,9,13,20,20-heptamethyl-24-oxahexacyclo[15.5.2.01,18.04,17.05,14.08,13]tetracosan-10-yl]oxy]oxan-3-yl]oxy-4,5-dihydroxy-6-(hydroxymethyl)oxan-3-yl]oxy-6-methyloxane-3,4,5-triol

> <PUBCHEM_IUPAC_SYSTEMATIC_NAME>
(2S,3R,4R,5R,6S)-2-[(2S,3R,4S,5S,6R)-2-[(3S,4R,5R,6S)-6-[[(1S,2R,4S,5R,8R,10S,13R,14R,17S,18R)-4,5,9,9,13,20,20-heptamethyl-2-oxidanyl-24-oxahexacyclo[15.5.2.01,18.04,17.05,14.08,13]tetracosan-10-yl]oxy]-4,5-bis(oxidanyl)oxan-3-yl]oxy-6-(hydroxymethyl)-4,5-bis(oxidanyl)oxan-3-yl]oxy-6-methyl-oxane-3,4,5-triol

> <PUBCHEM_IUPAC_TRADITIONAL_NAME>
(2S,3R,4R,5R,6S)-2-[(2S,3R,4S,5S,6R)-2-[(3S,4R,5R,6S)-4,5-dihydroxy-6-[[(1S,2R,4S,5R,8R,10S,13R,14R,17S,18R)-2-hydroxy-4,5,9,9,13,20,20-heptamethyl-24-oxahexacyclo[15.5.2.01,18.04,17.05,14.08,13]tetracosan-10-yl]oxy]tetrahydropyran-3-yl]oxy-4,5-dihydroxy-6-methylol-tetrahydropyran-3-yl]oxy-6-methyl-tetrahydropyran-3,4,5-triol

> <PUBCHEM_IUPAC_INCHI>
InChI=1S/C47H78O16/c1-22-30(50)33(53)36(56)39(59-22)63-37-34(54)31(51)23(19-48)60-40(37)61-24-20-57-38(35(55)32(24)52)62-29-11-12-43(6)25(42(29,4)5)9-13-44(7)26(43)10-14-47-27-17-41(2,3)15-16-46(27,21-58-47)28(49)18-45(44,47)8/h22-40,48-56H,9-21H2,1-8H3/t22-,23+,24-,25-,26+,27+,28+,29-,30-,31+,32-,33+,34-,35+,36+,37+,38-,39-,40-,43-,44+,45-,46+,47-/m0/s1

> <PUBCHEM_IUPAC_INCHIKEY>
HERCSTJVHFDRGB-JTWYRERBSA-N

> <PUBCHEM_XLOGP3_AA>
2.5

> <PUBCHEM_EXACT_MASS>
898.528986

> <PUBCHEM_MOLECULAR_FORMULA>
C47H78O16

> <PUBCHEM_MOLECULAR_WEIGHT>
899.1

> <PUBCHEM_OPENEYE_CAN_SMILES>
CC1C(C(C(C(O1)OC2C(C(C(OC2OC3COC(C(C3O)O)OC4CCC5(C(C4(C)C)CCC6(C5CCC78C6(CC(C9(C7CC(CC9)(C)C)CO8)O)C)C)C)CO)O)O)O)O)O

> <PUBCHEM_OPENEYE_ISO_SMILES>
C[C@H]1[C@@H]([C@H]([C@H]([C@@H](O1)O[C@@H]2[C@H]([C@@H]([C@H](O[C@H]2O[C@H]3CO[C@H]([C@@H]([C@H]3O)O)O[C@H]4CC[C@@]5([C@H]6CC[C@@]78[C@@H]9CC(CC[C@]9(CO7)[C@@H](C[C@]8([C@@]6(CC[C@H]5C4(C)C)C)C)O)(C)C)C)CO)O)O)O)O)O

> <PUBCHEM_CACTVS_TPSA>
247

> <PUBCHEM_MONOISOTOPIC_WEIGHT>
898.528986

> <PUBCHEM_TOTAL_CHARGE>
0

> <PUBCHEM_HEAVY_ATOM_COUNT>
63

> <PUBCHEM_ATOM_DEF_STEREO_COUNT>
24

> <PUBCHEM_ATOM_UDEF_STEREO_COUNT>
0

> <PUBCHEM_BOND_DEF_STEREO_COUNT>
0

> <PUBCHEM_BOND_UDEF_STEREO_COUNT>
0

> <PUBCHEM_ISOTOPIC_ATOM_COUNT>
0

> <PUBCHEM_COMPONENT_COUNT>
1

> <PUBCHEM_CACTVS_TAUTO_COUNT>
-1

> <PUBCHEM_COORDINATE_TYPE>
1
5
255

> <PUBCHEM_BONDANNOTATIONS>
54  10  5
56  11  6
59  14  5
60  15  5
62  16  6
17  34  5
18  25  6
19  35  6
26  2  5
20  64  6
21  32  6
22  65  5
23  40  6
28  73  5
41  3  6
47  3  6
48  5  5
55  57  5
49  6  6
61  63  5
51  7  6
52  7  5
53  9  6
58  9  6

$$$$
