16143735
  -OEChem-11212012202D

106116  0     1  0  0  0  0  0999 V2000
    3.6699    1.6657    0.0000 O   0  0  0  0  0  0  0  0  0  0  0  0
    6.3199    3.2142    0.0000 O   0  0  0  0  0  0  0  0  0  0  0  0
    6.9076    2.0077    0.0000 O   0  0  0  0  0  0  0  0  0  0  0  0
    4.5879    4.2142    0.0000 O   0  0  0  0  0  0  0  0  0  0  0  0
    2.8177    3.2173    0.0000 O   0  0  0  0  0  0  0  0  0  0  0  0
    3.0291   -1.3176    0.0000 O   0  0  0  0  0  0  0  0  0  0  0  0
    7.5281    1.7745    0.0000 O   0  0  0  0  0  0  0  0  0  0  0  0
    9.3479    2.0407    0.0000 O   0  0  0  0  0  0  0  0  0  0  0  0
    5.4539    5.7142    0.0000 O   0  0  0  0  0  0  0  0  0  0  0  0
    9.4279   -4.9630    0.0000 O   0  0  0  0  0  0  0  0  0  0  0  0
   11.4505   -5.9027    0.0000 O   0  0  0  0  0  0  0  0  0  0  0  0
    5.6658   -6.0870    0.0000 O   0  0  0  0  0  0  0  0  0  0  0  0
    2.0000   -2.9428    0.0000 O   0  0  0  0  0  0  0  0  0  0  0  0
    8.9344    5.7488    0.0000 O   0  0  0  0  0  0  0  0  0  0  0  0
    8.3041    6.6346    0.0000 O   0  0  0  0  0  0  0  0  0  0  0  0
   12.3512   -0.2155    0.0000 O   0  0  0  0  0  0  0  0  0  0  0  0
   12.3499   -2.4165    0.0000 O   0  0  0  0  0  0  0  0  0  0  0  0
   12.4474   -3.6421    0.0000 O   0  0  0  0  0  0  0  0  0  0  0  0
   10.8520    3.1895    0.0000 O   0  0  0  0  0  0  0  0  0  0  0  0
   11.4871    3.0646    0.0000 O   0  0  0  0  0  0  0  0  0  0  0  0
   10.7161    4.7383    0.0000 O   0  0  0  0  0  0  0  0  0  0  0  0
    3.9230    6.7830    0.0000 O   0  0  0  0  0  0  0  0  0  0  0  0
    6.1598    8.0744    0.0000 O   0  0  0  0  0  0  0  0  0  0  0  0
   12.7677    1.6481    0.0000 O   0  0  0  0  0  0  0  0  0  0  0  0
    9.5594   -3.2207    0.0000 O   0  0  0  0  0  0  0  0  0  0  0  0
    7.5608   -7.9306    0.0000 O   0  0  0  0  0  0  0  0  0  0  0  0
   10.8928   -7.4954    0.0000 O   0  0  0  0  0  0  0  0  0  0  0  0
    6.2482   -5.3930    0.0000 O   0  0  0  0  0  0  0  0  0  0  0  0
    5.3686   -2.3634    0.0000 O   0  0  0  0  0  0  0  0  0  0  0  0
    6.5730   -3.8452    0.0000 O   0  0  0  0  0  0  0  0  0  0  0  0
    5.4539    2.7142    0.0000 C   0  0  1  0  0  0  0  0  0  0  0  0
    5.4700    1.6727    0.0000 C   0  0  1  0  0  0  0  0  0  0  0  0
    4.5879    3.2142    0.0000 C   0  0  2  0  0  0  0  0  0  0  0  0
    4.5719    1.1449    0.0000 C   0  0  1  0  0  0  0  0  0  0  0  0
    3.6779    2.7073    0.0000 C   0  0  3  0  0  0  0  0  0  0  0  0
    3.5797    0.0520    0.0000 C   0  0  0  0  0  0  0  0  0  0  0  0
    7.1860    2.7142    0.0000 C   0  0  0  0  0  0  0  0  0  0  0  0
    8.3721    1.8223    0.0000 C   0  0  0  0  0  0  0  0  0  0  0  0
    5.4539    4.7142    0.0000 C   0  0  0  0  0  0  0  0  0  0  0  0
    8.0520    3.2142    0.0000 C   0  0  0  0  0  0  0  0  0  0  0  0
    9.6808    1.1395    0.0000 C   0  0  0  0  0  0  0  0  0  0  0  0
    6.3199    4.2142    0.0000 C   0  0  0  0  0  0  0  0  0  0  0  0
    8.0520    4.2142    0.0000 C   0  0  0  0  0  0  0  0  0  0  0  0
    7.1860    4.7142    0.0000 C   0  0  0  0  0  0  0  0  0  0  0  0
   10.6707    0.0445    0.0000 C   0  0  0  0  0  0  0  0  0  0  0  0
   11.2185   -1.3262    0.0000 C   0  0  0  0  0  0  0  0  0  0  0  0
    2.9888   -2.7932    0.0000 C   0  0  0  0  0  0  0  0  0  0  0  0
   11.2557   -2.8019    0.0000 C   0  0  0  0  0  0  0  0  0  0  0  0
   10.7778   -4.1986    0.0000 C   0  0  0  0  0  0  0  0  0  0  0  0
    8.9459    2.6795    0.0000 C   0  0  0  0  0  0  0  0  0  0  0  0
   10.1529    2.0104    0.0000 C   0  0  0  0  0  0  0  0  0  0  0  0
    9.8444   -5.3421    0.0000 C   0  0  0  0  0  0  0  0  0  0  0  0
    4.9086    4.7913    0.0000 C   0  0  0  0  0  0  0  0  0  0  0  0
    8.9459    4.7488    0.0000 C   0  0  0  0  0  0  0  0  0  0  0  0
    7.3918    6.2250    0.0000 C   0  0  0  0  0  0  0  0  0  0  0  0
   11.5846    0.4266    0.0000 C   0  0  0  0  0  0  0  0  0  0  0  0
   11.5023   -4.8974    0.0000 C   0  0  0  0  0  0  0  0  0  0  0  0
   11.3546   -2.5131    0.0000 C   0  0  0  0  0  0  0  0  0  0  0  0
    3.4637   -4.1909    0.0000 C   0  0  0  0  0  0  0  0  0  0  0  0
    8.5717   -6.0900    0.0000 C   0  0  0  0  0  0  0  0  0  0  0  0
    9.6697   -6.3327    0.0000 C   0  0  0  0  0  0  0  0  0  0  0  0
   11.4493   -3.7040    0.0000 C   0  0  0  0  0  0  0  0  0  0  0  0
    9.8520    3.1934    0.0000 C   0  0  0  0  0  0  0  0  0  0  0  0
   11.1364    2.1281    0.0000 C   0  0  0  0  0  0  0  0  0  0  0  0
    9.8520    4.2350    0.0000 C   0  0  0  0  0  0  0  0  0  0  0  0
    4.8055    6.3126    0.0000 C   0  0  0  0  0  0  0  0  0  0  0  0
   10.3230   -3.8665    0.0000 C   0  0  0  0  0  0  0  0  0  0  0  0
    6.1259    7.0749    0.0000 C   0  0  0  0  0  0  0  0  0  0  0  0
   11.8006    1.3933    0.0000 C   0  0  0  0  0  0  0  0  0  0  0  0
    7.1185   -6.3491    0.0000 C   0  0  0  0  0  0  0  0  0  0  0  0
    4.3947   -5.3364    0.0000 C   0  0  0  0  0  0  0  0  0  0  0  0
    8.9012   -6.9818    0.0000 C   0  0  0  0  0  0  0  0  0  0  0  0
   10.6581   -6.5233    0.0000 C   0  0  0  0  0  0  0  0  0  0  0  0
    7.8953   -6.9882    0.0000 C   0  0  0  0  0  0  0  0  0  0  0  0
    3.9808   -3.3461    0.0000 C   0  0  0  0  0  0  0  0  0  0  0  0
    5.3274   -5.0028    0.0000 C   0  0  0  0  0  0  0  0  0  0  0  0
    4.9692   -3.2802    0.0000 C   0  0  0  0  0  0  0  0  0  0  0  0
    5.5939   -4.0488    0.0000 C   0  0  0  0  0  0  0  0  0  0  0  0
    6.1933    2.2948    0.0000 H   0  0  0  0  0  0  0  0  0  0  0  0
    5.4831    0.8228    0.0000 H   0  0  0  0  0  0  0  0  0  0  0  0
    3.8551    3.6448    0.0000 H   0  0  0  0  0  0  0  0  0  0  0  0
    5.1081    0.4853    0.0000 H   0  0  0  0  0  0  0  0  0  0  0  0
    3.1380    2.4025    0.0000 H   0  0  0  0  0  0  0  0  0  0  0  0
    3.3222    0.6160    0.0000 H   0  0  0  0  0  0  0  0  0  0  0  0
    4.1051   -0.2772    0.0000 H   0  0  0  0  0  0  0  0  0  0  0  0
    2.2772    2.9135    0.0000 H   0  0  0  0  0  0  0  0  0  0  0  0
    8.9388    2.0596    0.0000 H   0  0  0  0  0  0  0  0  0  0  0  0
    9.8045    2.5232    0.0000 H   0  0  0  0  0  0  0  0  0  0  0  0
    4.4059    4.4284    0.0000 H   0  0  0  0  0  0  0  0  0  0  0  0
    9.1160   -7.5634    0.0000 H   0  0  0  0  0  0  0  0  0  0  0  0
    3.6599   -2.8156    0.0000 H   0  0  0  0  0  0  0  0  0  0  0  0
    9.4677    6.0649    0.0000 H   0  0  0  0  0  0  0  0  0  0  0  0
    8.3669    7.2514    0.0000 H   0  0  0  0  0  0  0  0  0  0  0  0
   12.9336   -0.0030    0.0000 H   0  0  0  0  0  0  0  0  0  0  0  0
   12.6066   -1.8521    0.0000 H   0  0  0  0  0  0  0  0  0  0  0  0
   12.7900   -4.1589    0.0000 H   0  0  0  0  0  0  0  0  0  0  0  0
   11.1641    3.7252    0.0000 H   0  0  0  0  0  0  0  0  0  0  0  0
   12.0986    3.1666    0.0000 H   0  0  0  0  0  0  0  0  0  0  0  0
   10.7137    5.3583    0.0000 H   0  0  0  0  0  0  0  0  0  0  0  0
    3.9020    7.4026    0.0000 H   0  0  0  0  0  0  0  0  0  0  0  0
   12.9306    2.2463    0.0000 H   0  0  0  0  0  0  0  0  0  0  0  0
    5.6337    8.4024    0.0000 H   0  0  0  0  0  0  0  0  0  0  0  0
    7.9631   -8.4024    0.0000 H   0  0  0  0  0  0  0  0  0  0  0  0
    6.7431   -5.0196    0.0000 H   0  0  0  0  0  0  0  0  0  0  0  0
    5.0002   -1.8647    0.0000 H   0  0  0  0  0  0  0  0  0  0  0  0
    6.7672   -3.2564    0.0000 H   0  0  0  0  0  0  0  0  0  0  0  0
  1 34  1  0  0  0  0
  1 35  1  0  0  0  0
  2 31  1  0  0  0  0
  2 37  1  0  0  0  0
  3 32  1  0  0  0  0
  3 38  1  0  0  0  0
  4 33  1  0  0  0  0
  4 39  1  0  0  0  0
  5 35  1  0  0  0  0
  5 86  1  0  0  0  0
  6 36  1  0  0  0  0
  6 47  1  0  0  0  0
  7 37  2  0  0  0  0
  8 38  2  0  0  0  0
  9 39  2  0  0  0  0
 10 60  1  0  0  0  0
 10 67  1  0  0  0  0
 11 57  1  0  0  0  0
 11 73  1  0  0  0  0
 12 70  1  0  0  0  0
 12 71  1  0  0  0  0
 13 47  2  0  0  0  0
 14 54  1  0  0  0  0
 14 92  1  0  0  0  0
 15 55  1  0  0  0  0
 15 93  1  0  0  0  0
 16 56  1  0  0  0  0
 16 94  1  0  0  0  0
 17 58  1  0  0  0  0
 17 95  1  0  0  0  0
 18 62  1  0  0  0  0
 18 96  1  0  0  0  0
 19 63  1  0  0  0  0
 19 97  1  0  0  0  0
 20 64  1  0  0  0  0
 20 98  1  0  0  0  0
 21 65  1  0  0  0  0
 21 99  1  0  0  0  0
 22 66  1  0  0  0  0
 22100  1  0  0  0  0
 23 68  1  0  0  0  0
 23102  1  0  0  0  0
 24 69  1  0  0  0  0
 24101  1  0  0  0  0
 25 67  2  0  0  0  0
 26 74  1  0  0  0  0
 26103  1  0  0  0  0
 27 73  2  0  0  0  0
 28 76  1  0  0  0  0
 28104  1  0  0  0  0
 29 77  1  0  0  0  0
 29105  1  0  0  0  0
 30 78  1  0  0  0  0
 30106  1  0  0  0  0
 31 32  1  0  0  0  0
 31 33  1  0  0  0  0
 31 79  1  6  0  0  0
 32 34  1  0  0  0  0
 32 80  1  1  0  0  0
 33 35  1  0  0  0  0
 33 81  1  1  0  0  0
 34 36  1  0  0  0  0
 34 82  1  6  0  0  0
 35 83  1  0  0  0  0
 36 84  1  0  0  0  0
 36 85  1  0  0  0  0
 37 40  1  0  0  0  0
 38 41  1  0  0  0  0
 39 42  1  0  0  0  0
 40 43  1  0  0  0  0
 40 50  2  0  0  0  0
 41 45  1  0  0  0  0
 41 51  2  0  0  0  0
 42 44  1  0  0  0  0
 42 53  2  0  0  0  0
 43 44  1  0  0  0  0
 43 54  2  0  0  0  0
 44 55  2  0  0  0  0
 45 46  1  0  0  0  0
 45 56  2  0  0  0  0
 46 48  1  0  0  0  0
 46 58  2  0  0  0  0
 47 59  1  0  0  0  0
 48 49  2  0  0  0  0
 48 67  1  0  0  0  0
 49 52  1  0  0  0  0
 49 57  1  0  0  0  0
 50 63  1  0  0  0  0
 50 87  1  0  0  0  0
 51 64  1  0  0  0  0
 51 88  1  0  0  0  0
 52 60  2  0  0  0  0
 52 61  1  0  0  0  0
 53 66  1  0  0  0  0
 53 89  1  0  0  0  0
 54 65  1  0  0  0  0
 55 68  1  0  0  0  0
 56 69  1  0  0  0  0
 57 62  2  0  0  0  0
 58 62  1  0  0  0  0
 59 71  1  0  0  0  0
 59 75  2  0  0  0  0
 60 70  1  0  0  0  0
 61 72  2  0  0  0  0
 61 73  1  0  0  0  0
 63 65  2  0  0  0  0
 64 69  2  0  0  0  0
 66 68  2  0  0  0  0
 70 74  2  0  0  0  0
 71 76  2  0  0  0  0
 72 74  1  0  0  0  0
 72 90  1  0  0  0  0
 75 77  1  0  0  0  0
 75 91  1  0  0  0  0
 76 78  1  0  0  0  0
 77 78  2  0  0  0  0
M  END
> <PUBCHEM_COMPOUND_CID>
16143735

> <PUBCHEM_COMPOUND_CANONICALIZED>
1

> <PUBCHEM_CACTVS_COMPLEXITY>
2360

> <PUBCHEM_CACTVS_HBOND_ACCEPTOR>
30

> <PUBCHEM_CACTVS_HBOND_DONOR>
16

> <PUBCHEM_CACTVS_ROTATABLE_BOND>
0

> <PUBCHEM_CACTVS_SUBSKEYS>
AAADceB8PgAAAAAAAAAAAAAAAAAAAAAAAAA0aNGDAAAAAACRVAAAGgAACAAADBSwmAMwDoAABgCIAiDSCAACCAAkIAAAiAEGiMgdNzaGNBqCe2Ol4BUPuYfK7PzOoQADCAAYQABCAAYQADCAAAAAAAAAAA==

> <PUBCHEM_IUPAC_OPENEYE_NAME>
(10R,11S,28R,31R)-3,4,5,16,17,18,21,22,23,29,37,38,39,43,55,56-hexadecahydroxy-9,12,27,30,33,41,47,52-octaoxaundecacyclo[46.6.2.02,7.010,31.011,28.014,19.020,25.035,40.042,51.045,50.049,54]hexapentaconta-1(55),2,4,6,14,16,18,20,22,24,35,37,39,42,44,48(56),49(54),50-octadecaene-8,13,26,34,46,53-hexone

> <PUBCHEM_IUPAC_CAS_NAME>
(10R,11S,28R,31R)-3,4,5,16,17,18,21,22,23,29,37,38,39,43,55,56-hexadecahydroxy-9,12,27,30,33,41,47,52-octaoxaundecacyclo[46.6.2.02,7.010,31.011,28.014,19.020,25.035,40.042,51.045,50.049,54]hexapentaconta-1(55),2,4,6,14,16,18,20,22,24,35,37,39,42,44,48(56),49(54),50-octadecaene-8,13,26,34,46,53-hexone

> <PUBCHEM_IUPAC_NAME_MARKUP>
(10<I>R</I>,11<I>S</I>,28<I>R</I>,31<I>R</I>)-3,4,5,16,17,18,21,22,23,29,37,38,39,43,55,56-hexadecahydroxy-9,12,27,30,33,41,47,52-octaoxaundecacyclo[46.6.2.0<SUP>2,7</SUP>.0<SUP>10,31</SUP>.0<SUP>11,28</SUP>.0<SUP>14,19</SUP>.0<SUP>20,25</SUP>.0<SUP>35,40</SUP>.0<SUP>42,51</SUP>.0<SUP>45,50</SUP>.0<SUP>49,54</SUP>]hexapentaconta-1(55),2,4,6,14,16,18,20,22,24,35,37,39,42,44,48(56),49(54),50-octadecaene-8,13,26,34,46,53-hexone

> <PUBCHEM_IUPAC_NAME>
(10R,11S,28R,31R)-3,4,5,16,17,18,21,22,23,29,37,38,39,43,55,56-hexadecahydroxy-9,12,27,30,33,41,47,52-octaoxaundecacyclo[46.6.2.02,7.010,31.011,28.014,19.020,25.035,40.042,51.045,50.049,54]hexapentaconta-1(55),2,4,6,14,16,18,20,22,24,35,37,39,42,44,48(56),49(54),50-octadecaene-8,13,26,34,46,53-hexone

> <PUBCHEM_IUPAC_SYSTEMATIC_NAME>
(10R,11S,28R,31R)-3,4,5,16,17,18,21,22,23,29,37,38,39,43,55,56-hexadecakis(oxidanyl)-9,12,27,30,33,41,47,52-octaoxaundecacyclo[46.6.2.02,7.010,31.011,28.014,19.020,25.035,40.042,51.045,50.049,54]hexapentaconta-1(55),2,4,6,14,16,18,20,22,24,35,37,39,42,44,48(56),49(54),50-octadecaene-8,13,26,34,46,53-hexone

> <PUBCHEM_IUPAC_TRADITIONAL_NAME>
(10R,11S,28R,31R)-3,4,5,16,17,18,21,22,23,29,37,38,39,43,55,56-hexadecahydroxy-9,12,27,30,33,41,47,52-octaoxaundecacyclo[46.6.2.02,7.010,31.011,28.014,19.020,25.035,40.042,51.045,50.049,54]hexapentaconta-1(55),2,4,6,14,16,18,20,22,24,35,37,39,42,44,48(56),49(54),50-octadecaene-8,13,26,34,46,53-triquinone

> <PUBCHEM_IUPAC_INCHI>
InChI=1S/C48H28O30/c49-12-1-7-18(29(58)25(12)54)19-8(2-13(50)26(55)30(19)59)45(67)78-41-40(77-44(7)66)37-17(72-48(41)70)6-71-42(64)11-5-15(52)28(57)33(62)35(11)73-36-16(53)4-10-21-23-24(47(69)76-39(21)36)22(32(61)34(63)38(23)75-46(10)68)20-9(43(65)74-37)3-14(51)27(56)31(20)60/h1-5,17,37,40-41,48-63,70H,6H2/t17-,37-,40+,41-,48?/m1/s1

> <PUBCHEM_IUPAC_INCHIKEY>
ATMAUXPNIAMDBD-OMAMPWTPSA-N

> <PUBCHEM_XLOGP3_AA>
2

> <PUBCHEM_EXACT_MASS>
1084.066539

> <PUBCHEM_MOLECULAR_FORMULA>
C48H28O30

> <PUBCHEM_MOLECULAR_WEIGHT>
1084.7

> <PUBCHEM_OPENEYE_CAN_SMILES>
C1C2C(C3C(C(O2)O)OC(=O)C4=CC(=C(C(=C4C5=C(C(=C(C=C5C(=O)O3)O)O)O)O)O)O)OC(=O)C6=CC(=C(C(=C6C7=C(C(=C8C9=C7C(=O)OC2=C9C(=CC(=C2OC2=C(C(=C(C=C2C(=O)O1)O)O)O)O)C(=O)O8)O)O)O)O)O

> <PUBCHEM_OPENEYE_ISO_SMILES>
C1[C@@H]2[C@H]([C@H]3[C@H](C(O2)O)OC(=O)C4=CC(=C(C(=C4C5=C(C(=C(C=C5C(=O)O3)O)O)O)O)O)O)OC(=O)C6=CC(=C(C(=C6C7=C(C(=C8C9=C7C(=O)OC2=C9C(=CC(=C2OC2=C(C(=C(C=C2C(=O)O1)O)O)O)O)C(=O)O8)O)O)O)O)O

> <PUBCHEM_CACTVS_TPSA>
500

> <PUBCHEM_MONOISOTOPIC_WEIGHT>
1084.066539

> <PUBCHEM_TOTAL_CHARGE>
0

> <PUBCHEM_HEAVY_ATOM_COUNT>
78

> <PUBCHEM_ATOM_DEF_STEREO_COUNT>
4

> <PUBCHEM_ATOM_UDEF_STEREO_COUNT>
1

> <PUBCHEM_BOND_DEF_STEREO_COUNT>
0

> <PUBCHEM_BOND_UDEF_STEREO_COUNT>
0

> <PUBCHEM_ISOTOPIC_ATOM_COUNT>
0

> <PUBCHEM_COMPONENT_COUNT>
1

> <PUBCHEM_CACTVS_TAUTO_COUNT>
-1

> <PUBCHEM_COORDINATE_TYPE>
1
5
255

> <PUBCHEM_BONDANNOTATIONS>
10  60  8
10  67  8
11  57  8
11  73  8
31  79  6
32  80  5
33  81  5
34  82  6
40  43  8
40  50  8
41  45  8
41  51  8
42  44  8
42  53  8
43  54  8
44  55  8
45  56  8
46  48  8
46  58  8
48  49  8
48  67  8
49  52  8
49  57  8
35  5  3
50  63  8
51  64  8
52  60  8
52  61  8
53  66  8
54  65  8
55  68  8
56  69  8
57  62  8
58  62  8
59  71  8
59  75  8
60  70  8
61  72  8
61  73  8
63  65  8
64  69  8
66  68  8
70  74  8
71  76  8
72  74  8
75  77  8
76  78  8
77  78  8

$$$$
