14035324
  -OEChem-11212000252D

 72 76  0     1  0  0  0  0  0999 V2000
    5.1406   -2.7890    0.0000 O   0  0  0  0  0  0  0  0  0  0  0  0
    4.2625    2.7869    0.0000 O   0  0  0  0  0  0  0  0  0  0  0  0
    6.8726   -2.7890    0.0000 O   0  0  0  0  0  0  0  0  0  0  0  0
    5.1406   -5.7890    0.0000 O   0  0  0  0  0  0  0  0  0  0  0  0
    3.4085   -4.7890    0.0000 O   0  0  0  0  0  0  0  0  0  0  0  0
    5.9945    2.7803    0.0000 O   0  0  0  0  0  0  0  0  0  0  0  0
    6.8726   -4.7890    0.0000 O   0  0  0  0  0  0  0  0  0  0  0  0
    4.2740    5.7869    0.0000 O   0  0  0  0  0  0  0  0  0  0  0  0
    2.5381    4.7936    0.0000 O   0  0  0  0  0  0  0  0  0  0  0  0
    6.0022    4.7802    0.0000 O   0  0  0  0  0  0  0  0  0  0  0  0
    2.5425   -3.2890    0.0000 O   0  0  0  0  0  0  0  0  0  0  0  0
    7.7386   -0.2890    0.0000 O   0  0  0  0  0  0  0  0  0  0  0  0
    5.1406   -1.7890    0.0000 O   0  0  0  0  0  0  0  0  0  0  0  0
    4.2364   -0.2921    0.0000 O   0  0  0  0  0  0  0  0  0  0  0  0
   11.2027   -3.2890    0.0000 O   0  0  0  0  0  0  0  0  0  0  0  0
    5.1406   -4.7890    0.0000 C   0  0  3  0  0  0  0  0  0  0  0  0
    4.2745   -4.2890    0.0000 C   0  0  3  0  0  0  0  0  0  0  0  0
    6.0066   -4.2890    0.0000 C   0  0  3  0  0  0  0  0  0  0  0  0
    4.2745   -3.2890    0.0000 C   0  0  3  0  0  0  0  0  0  0  0  0
    4.2702    4.7869    0.0000 C   0  0  3  0  0  0  0  0  0  0  0  0
    3.4022    4.2903    0.0000 C   0  0  3  0  0  0  0  0  0  0  0  0
    6.0066   -3.2890    0.0000 C   0  0  3  0  0  0  0  0  0  0  0  0
    5.1343    4.2836    0.0000 C   0  0  3  0  0  0  0  0  0  0  0  0
    3.3984    3.2903    0.0000 C   0  0  3  0  0  0  0  0  0  0  0  0
    5.1304    3.2836    0.0000 C   0  0  3  0  0  0  0  0  0  0  0  0
    3.4085   -2.7890    0.0000 C   0  0  0  0  0  0  0  0  0  0  0  0
    2.5304    2.7936    0.0000 C   0  0  0  0  0  0  0  0  0  0  0  0
    6.8726   -1.7890    0.0000 C   0  0  0  0  0  0  0  0  0  0  0  0
    5.9906    1.7803    0.0000 C   0  0  0  0  0  0  0  0  0  0  0  0
    6.0066   -0.2890    0.0000 C   0  0  0  0  0  0  0  0  0  0  0  0
    6.0066   -1.2890    0.0000 C   0  0  0  0  0  0  0  0  0  0  0  0
    7.7386   -1.2890    0.0000 C   0  0  0  0  0  0  0  0  0  0  0  0
    6.8726    0.2110    0.0000 C   0  0  0  0  0  0  0  0  0  0  0  0
    6.8887    1.2525    0.0000 C   0  0  0  0  0  0  0  0  0  0  0  0
    5.0886    1.2595    0.0000 C   0  0  0  0  0  0  0  0  0  0  0  0
    5.0966    0.2179    0.0000 C   0  0  0  0  0  0  0  0  0  0  0  0
    8.6047   -1.7890    0.0000 C   0  0  0  0  0  0  0  0  0  0  0  0
    8.6047   -2.7890    0.0000 C   0  0  0  0  0  0  0  0  0  0  0  0
    9.4707   -1.2890    0.0000 C   0  0  0  0  0  0  0  0  0  0  0  0
    9.4707   -3.2890    0.0000 C   0  0  0  0  0  0  0  0  0  0  0  0
   10.3367   -1.7890    0.0000 C   0  0  0  0  0  0  0  0  0  0  0  0
   10.3367   -2.7890    0.0000 C   0  0  0  0  0  0  0  0  0  0  0  0
    4.6036   -5.0990    0.0000 H   0  0  0  0  0  0  0  0  0  0  0  0
    3.7376   -3.9790    0.0000 H   0  0  0  0  0  0  0  0  0  0  0  0
    6.0066   -4.9090    0.0000 H   0  0  0  0  0  0  0  0  0  0  0  0
    4.2745   -2.6690    0.0000 H   0  0  0  0  0  0  0  0  0  0  0  0
    3.7344    5.0990    0.0000 H   0  0  0  0  0  0  0  0  0  0  0  0
    2.8641    3.9823    0.0000 H   0  0  0  0  0  0  0  0  0  0  0  0
    6.0066   -2.6690    0.0000 H   0  0  0  0  0  0  0  0  0  0  0  0
    5.6700    3.9715    0.0000 H   0  0  0  0  0  0  0  0  0  0  0  0
    3.3960    2.6703    0.0000 H   0  0  0  0  0  0  0  0  0  0  0  0
    5.1280    2.6636    0.0000 H   0  0  0  0  0  0  0  0  0  0  0  0
    3.8070   -2.3140    0.0000 H   0  0  0  0  0  0  0  0  0  0  0  0
    3.0100   -2.3140    0.0000 H   0  0  0  0  0  0  0  0  0  0  0  0
    2.2225    3.3318    0.0000 H   0  0  0  0  0  0  0  0  0  0  0  0
    1.9923    2.4857    0.0000 H   0  0  0  0  0  0  0  0  0  0  0  0
    2.8384    2.2555    0.0000 H   0  0  0  0  0  0  0  0  0  0  0  0
    4.6036   -6.0990    0.0000 H   0  0  0  0  0  0  0  0  0  0  0  0
    3.4085   -5.4090    0.0000 H   0  0  0  0  0  0  0  0  0  0  0  0
    6.8726   -5.4090    0.0000 H   0  0  0  0  0  0  0  0  0  0  0  0
    3.7383    6.0990    0.0000 H   0  0  0  0  0  0  0  0  0  0  0  0
    2.0000    4.4857    0.0000 H   0  0  0  0  0  0  0  0  0  0  0  0
    6.0046    5.4002    0.0000 H   0  0  0  0  0  0  0  0  0  0  0  0
    2.0056   -2.9790    0.0000 H   0  0  0  0  0  0  0  0  0  0  0  0
    7.4292    1.5563    0.0000 H   0  0  0  0  0  0  0  0  0  0  0  0
    4.5504    1.5674    0.0000 H   0  0  0  0  0  0  0  0  0  0  0  0
    8.0677   -3.0990    0.0000 H   0  0  0  0  0  0  0  0  0  0  0  0
    9.4707   -0.6690    0.0000 H   0  0  0  0  0  0  0  0  0  0  0  0
    3.6959    0.0116    0.0000 H   0  0  0  0  0  0  0  0  0  0  0  0
    9.4707   -3.9090    0.0000 H   0  0  0  0  0  0  0  0  0  0  0  0
   10.8737   -1.4790    0.0000 H   0  0  0  0  0  0  0  0  0  0  0  0
   11.2027   -3.9090    0.0000 H   0  0  0  0  0  0  0  0  0  0  0  0
  1 19  1  0  0  0  0
  1 22  1  0  0  0  0
  2 24  1  0  0  0  0
  2 25  1  0  0  0  0
  3 22  1  0  0  0  0
  3 28  1  0  0  0  0
  4 16  1  0  0  0  0
  4 58  1  0  0  0  0
  5 17  1  0  0  0  0
  5 59  1  0  0  0  0
  6 25  1  0  0  0  0
  6 29  1  0  0  0  0
  7 18  1  0  0  0  0
  7 60  1  0  0  0  0
  8 20  1  0  0  0  0
  8 61  1  0  0  0  0
  9 21  1  0  0  0  0
  9 62  1  0  0  0  0
 10 23  1  0  0  0  0
 10 63  1  0  0  0  0
 11 26  1  0  0  0  0
 11 64  1  0  0  0  0
 12 32  1  0  0  0  0
 12 33  1  0  0  0  0
 13 31  2  0  0  0  0
 14 36  1  0  0  0  0
 14 69  1  0  0  0  0
 15 42  1  0  0  0  0
 15 72  1  0  0  0  0
 16 17  1  0  0  0  0
 16 18  1  0  0  0  0
 16 43  1  0  0  0  0
 17 19  1  0  0  0  0
 17 44  1  0  0  0  0
 18 22  1  0  0  0  0
 18 45  1  0  0  0  0
 19 26  1  0  0  0  0
 19 46  1  0  0  0  0
 20 21  1  0  0  0  0
 20 23  1  0  0  0  0
 20 47  1  0  0  0  0
 21 24  1  0  0  0  0
 21 48  1  0  0  0  0
 22 49  1  0  0  0  0
 23 25  1  0  0  0  0
 23 50  1  0  0  0  0
 24 27  1  0  0  0  0
 24 51  1  0  0  0  0
 25 52  1  0  0  0  0
 26 53  1  0  0  0  0
 26 54  1  0  0  0  0
 27 55  1  0  0  0  0
 27 56  1  0  0  0  0
 27 57  1  0  0  0  0
 28 31  1  0  0  0  0
 28 32  2  0  0  0  0
 29 34  1  0  0  0  0
 29 35  2  0  0  0  0
 30 31  1  0  0  0  0
 30 33  1  0  0  0  0
 30 36  2  0  0  0  0
 32 37  1  0  0  0  0
 33 34  2  0  0  0  0
 34 65  1  0  0  0  0
 35 36  1  0  0  0  0
 35 66  1  0  0  0  0
 37 38  2  0  0  0  0
 37 39  1  0  0  0  0
 38 40  1  0  0  0  0
 38 67  1  0  0  0  0
 39 41  2  0  0  0  0
 39 68  1  0  0  0  0
 40 42  2  0  0  0  0
 40 70  1  0  0  0  0
 41 42  1  0  0  0  0
 41 71  1  0  0  0  0
M  END
> <PUBCHEM_COMPOUND_CID>
14035324

> <PUBCHEM_COMPOUND_CANONICALIZED>
1

> <PUBCHEM_CACTVS_COMPLEXITY>
985

> <PUBCHEM_CACTVS_HBOND_ACCEPTOR>
15

> <PUBCHEM_CACTVS_HBOND_DONOR>
9

> <PUBCHEM_CACTVS_ROTATABLE_BOND>
6

> <PUBCHEM_CACTVS_SUBSKEYS>
AAADceB4PAAAAAAAAAAAAAAAAAAAAAAAAAA0aIECAAAAAACBQAAAGgAACAAADBSwmAMyDoAABgCIAqBSAAICCAAkIAAIiAFGCMgdNzaGNR6ieWCl4BUPuQfI7KzOIAAACAAIAABAAAAQABAAAAAAAAAAAA==

> <PUBCHEM_IUPAC_OPENEYE_NAME>
5-hydroxy-2-(4-hydroxyphenyl)-3-[3,4,5-trihydroxy-6-(hydroxymethyl)tetrahydropyran-2-yl]oxy-7-(3,4,5-trihydroxy-6-methyl-tetrahydropyran-2-yl)oxy-chromen-4-one

> <PUBCHEM_IUPAC_CAS_NAME>
5-hydroxy-2-(4-hydroxyphenyl)-3-[[3,4,5-trihydroxy-6-(hydroxymethyl)-2-oxanyl]oxy]-7-[(3,4,5-trihydroxy-6-methyl-2-oxanyl)oxy]-1-benzopyran-4-one

> <PUBCHEM_IUPAC_NAME_MARKUP>
5-hydroxy-2-(4-hydroxyphenyl)-3-[3,4,5-trihydroxy-6-(hydroxymethyl)oxan-2-yl]oxy-7-(3,4,5-trihydroxy-6-methyloxan-2-yl)oxychromen-4-one

> <PUBCHEM_IUPAC_NAME>
5-hydroxy-2-(4-hydroxyphenyl)-3-[3,4,5-trihydroxy-6-(hydroxymethyl)oxan-2-yl]oxy-7-(3,4,5-trihydroxy-6-methyloxan-2-yl)oxychromen-4-one

> <PUBCHEM_IUPAC_SYSTEMATIC_NAME>
3-[6-(hydroxymethyl)-3,4,5-tris(oxidanyl)oxan-2-yl]oxy-2-(4-hydroxyphenyl)-7-[6-methyl-3,4,5-tris(oxidanyl)oxan-2-yl]oxy-5-oxidanyl-chromen-4-one

> <PUBCHEM_IUPAC_TRADITIONAL_NAME>
5-hydroxy-2-(4-hydroxyphenyl)-3-(3,4,5-trihydroxy-6-methylol-tetrahydropyran-2-yl)oxy-7-(3,4,5-trihydroxy-6-methyl-tetrahydropyran-2-yl)oxy-chromone

> <PUBCHEM_IUPAC_INCHI>
InChI=1S/C27H30O15/c1-9-17(31)20(34)22(36)26(38-9)39-12-6-13(30)16-14(7-12)40-24(10-2-4-11(29)5-3-10)25(19(16)33)42-27-23(37)21(35)18(32)15(8-28)41-27/h2-7,9,15,17-18,20-23,26-32,34-37H,8H2,1H3

> <PUBCHEM_IUPAC_INCHIKEY>
JYXSWDCPHRTYGU-UHFFFAOYSA-N

> <PUBCHEM_XLOGP3_AA>
-0.6

> <PUBCHEM_EXACT_MASS>
594.15847

> <PUBCHEM_MOLECULAR_FORMULA>
C27H30O15

> <PUBCHEM_MOLECULAR_WEIGHT>
594.5

> <PUBCHEM_OPENEYE_CAN_SMILES>
CC1C(C(C(C(O1)OC2=CC(=C3C(=C2)OC(=C(C3=O)OC4C(C(C(C(O4)CO)O)O)O)C5=CC=C(C=C5)O)O)O)O)O

> <PUBCHEM_OPENEYE_ISO_SMILES>
CC1C(C(C(C(O1)OC2=CC(=C3C(=C2)OC(=C(C3=O)OC4C(C(C(C(O4)CO)O)O)O)C5=CC=C(C=C5)O)O)O)O)O

> <PUBCHEM_CACTVS_TPSA>
245

> <PUBCHEM_MONOISOTOPIC_WEIGHT>
594.15847

> <PUBCHEM_TOTAL_CHARGE>
0

> <PUBCHEM_HEAVY_ATOM_COUNT>
42

> <PUBCHEM_ATOM_DEF_STEREO_COUNT>
0

> <PUBCHEM_ATOM_UDEF_STEREO_COUNT>
10

> <PUBCHEM_BOND_DEF_STEREO_COUNT>
0

> <PUBCHEM_BOND_UDEF_STEREO_COUNT>
0

> <PUBCHEM_ISOTOPIC_ATOM_COUNT>
0

> <PUBCHEM_COMPONENT_COUNT>
1

> <PUBCHEM_CACTVS_TAUTO_COUNT>
-1

> <PUBCHEM_COORDINATE_TYPE>
1
5
255

> <PUBCHEM_BONDANNOTATIONS>
23  10  3
12  32  8
12  33  8
19  26  3
24  27  3
28  31  8
28  32  8
29  34  8
29  35  8
22  3  3
30  31  8
30  33  8
30  36  8
33  34  8
35  36  8
37  38  8
37  39  8
38  40  8
39  41  8
16  4  3
40  42  8
41  42  8
17  5  3
25  6  3
18  7  3
20  8  3
21  9  3

$$$$
