50908261
  -OEChem-11202023562D

 97107  0     1  0  0  0  0  0999 V2000
    8.6901    1.5265    0.0000 O   0  0  0  0  0  0  0  0  0  0  0  0
    6.4191   -1.3986    0.0000 O   0  0  0  0  0  0  0  0  0  0  0  0
   12.1549    1.6399    0.0000 O   0  0  0  0  0  0  0  0  0  0  0  0
    4.7126   -0.1740    0.0000 O   0  0  0  0  0  0  0  0  0  0  0  0
   10.1001   -1.6198    0.0000 O   0  0  0  0  0  0  0  0  0  0  0  0
    9.4867    3.6862    0.0000 O   0  0  0  0  0  0  0  0  0  0  0  0
    4.6070    0.3712    0.0000 O   0  0  0  0  0  0  0  0  0  0  0  0
    9.0037   -4.1842    0.0000 O   0  0  0  0  0  0  0  0  0  0  0  0
    6.6503    2.7007    0.0000 O   0  0  0  0  0  0  0  0  0  0  0  0
   11.0989   -1.5745    0.0000 O   0  0  0  0  0  0  0  0  0  0  0  0
    3.2763    2.9003    0.0000 O   0  0  0  0  0  0  0  0  0  0  0  0
   14.5972   -1.0342    0.0000 O   0  0  0  0  0  0  0  0  0  0  0  0
   13.1728    4.2871    0.0000 O   0  0  0  0  0  0  0  0  0  0  0  0
    2.3620   -2.2163    0.0000 O   0  0  0  0  0  0  0  0  0  0  0  0
   11.7586    5.7013    0.0000 O   0  0  0  0  0  0  0  0  0  0  0  0
    3.1844   -4.0394    0.0000 O   0  0  0  0  0  0  0  0  0  0  0  0
   11.5956   -5.7990    0.0000 O   0  0  0  0  0  0  0  0  0  0  0  0
   13.3829   -4.9015    0.0000 O   0  0  0  0  0  0  0  0  0  0  0  0
    6.5861    0.7504    0.0000 C   0  0  2  0  0  0  0  0  0  0  0  0
   10.4645    0.8717    0.0000 C   0  0  2  0  0  0  0  0  0  0  0  0
    7.4713    0.1231    0.0000 C   0  0  0  0  0  0  0  0  0  0  0  0
    9.2435    0.0060    0.0000 C   0  0  0  0  0  0  0  0  0  0  0  0
    9.9867    2.8202    0.0000 C   0  0  2  0  0  0  0  0  0  0  0  0
    5.6036    0.2899    0.0000 C   0  0  2  0  0  0  0  0  0  0  0  0
   10.7233    1.8376    0.0000 C   0  0  2  0  0  0  0  0  0  0  0  0
    8.4144    0.5652    0.0000 C   0  0  0  0  0  0  0  0  0  0  0  0
    5.5196   -0.7918    0.0000 C   0  0  2  0  0  0  0  0  0  0  0  0
    7.3906   -0.9154    0.0000 C   0  0  0  0  0  0  0  0  0  0  0  0
    8.2542   -1.4979    0.0000 C   0  0  0  0  0  0  0  0  0  0  0  0
    9.1868   -1.0341    0.0000 C   0  0  0  0  0  0  0  0  0  0  0  0
    5.7230    1.2874    0.0000 C   0  0  0  0  0  0  0  0  0  0  0  0
   11.7362    0.0770    0.0000 C   0  0  0  0  0  0  0  0  0  0  0  0
    8.1701   -2.5796    0.0000 C   0  0  0  0  0  0  0  0  0  0  0  0
    9.0696   -3.1864    0.0000 C   0  0  2  0  0  0  0  0  0  0  0  0
   10.0411   -2.7032    0.0000 C   0  0  1  0  0  0  0  0  0  0  0  0
   12.5133    0.7064    0.0000 C   0  0  0  0  0  0  0  0  0  0  0  0
    4.8116    0.8376    0.0000 C   0  0  0  0  0  0  0  0  0  0  0  0
   10.9821    2.8035    0.0000 C   0  0  0  0  0  0  0  0  0  0  0  0
    4.9358   -1.6037    0.0000 C   0  0  0  0  0  0  0  0  0  0  0  0
    5.7618    2.2418    0.0000 C   0  0  0  0  0  0  0  0  0  0  0  0
   11.8832   -0.9542    0.0000 C   0  0  0  0  0  0  0  0  0  0  0  0
   13.4914    0.3481    0.0000 C   0  0  0  0  0  0  0  0  0  0  0  0
    4.0305    1.3875    0.0000 C   0  0  0  0  0  0  0  0  0  0  0  0
   10.8766   -3.2528    0.0000 C   0  0  0  0  0  0  0  0  0  0  0  0
   11.9481    3.0623    0.0000 C   0  0  0  0  0  0  0  0  0  0  0  0
   10.2750    3.5106    0.0000 C   0  0  0  0  0  0  0  0  0  0  0  0
    3.9408   -1.5041    0.0000 C   0  0  0  0  0  0  0  0  0  0  0  0
    5.3470   -2.5153    0.0000 C   0  0  0  0  0  0  0  0  0  0  0  0
    4.9611    2.7624    0.0000 C   0  0  0  0  0  0  0  0  0  0  0  0
   12.8528   -1.3349    0.0000 C   0  0  0  0  0  0  0  0  0  0  0  0
    4.1045    2.3398    0.0000 C   0  0  0  0  0  0  0  0  0  0  0  0
   13.6623   -0.6794    0.0000 C   0  0  0  0  0  0  0  0  0  0  0  0
   12.2069    4.0283    0.0000 C   0  0  0  0  0  0  0  0  0  0  0  0
    3.3570   -2.3160    0.0000 C   0  0  0  0  0  0  0  0  0  0  0  0
   10.5338    4.4766    0.0000 C   0  0  0  0  0  0  0  0  0  0  0  0
    4.7632   -3.3272    0.0000 C   0  0  0  0  0  0  0  0  0  0  0  0
   10.8184   -4.2511    0.0000 C   0  0  0  0  0  0  0  0  0  0  0  0
   11.7702   -2.8041    0.0000 C   0  0  0  0  0  0  0  0  0  0  0  0
   11.4998    4.7354    0.0000 C   0  0  0  0  0  0  0  0  0  0  0  0
    3.7682   -3.2275    0.0000 C   0  0  0  0  0  0  0  0  0  0  0  0
   11.6538   -4.8007    0.0000 C   0  0  0  0  0  0  0  0  0  0  0  0
   12.6057   -3.3536    0.0000 C   0  0  0  0  0  0  0  0  0  0  0  0
   12.5475   -4.3519    0.0000 C   0  0  0  0  0  0  0  0  0  0  0  0
    6.6617    1.5971    0.0000 H   0  0  0  0  0  0  0  0  0  0  0  0
   10.2445    0.0506    0.0000 H   0  0  0  0  0  0  0  0  0  0  0  0
   10.5041    3.1618    0.0000 H   0  0  0  0  0  0  0  0  0  0  0  0
    5.4936    0.9000    0.0000 H   0  0  0  0  0  0  0  0  0  0  0  0
    7.5693   -2.4266    0.0000 H   0  0  0  0  0  0  0  0  0  0  0  0
    7.9165   -3.1454    0.0000 H   0  0  0  0  0  0  0  0  0  0  0  0
    9.5856   -3.5301    0.0000 H   0  0  0  0  0  0  0  0  0  0  0  0
   10.5947   -2.4240    0.0000 H   0  0  0  0  0  0  0  0  0  0  0  0
    8.8667    3.6862    0.0000 H   0  0  0  0  0  0  0  0  0  0  0  0
    4.0466    0.1059    0.0000 H   0  0  0  0  0  0  0  0  0  0  0  0
   13.9687    0.7438    0.0000 H   0  0  0  0  0  0  0  0  0  0  0  0
    3.4695    1.1234    0.0000 H   0  0  0  0  0  0  0  0  0  0  0  0
   12.3865    2.6239    0.0000 H   0  0  0  0  0  0  0  0  0  0  0  0
    9.6761    3.3502    0.0000 H   0  0  0  0  0  0  0  0  0  0  0  0
    3.6858   -0.9389    0.0000 H   0  0  0  0  0  0  0  0  0  0  0  0
    5.9639   -2.5771    0.0000 H   0  0  0  0  0  0  0  0  0  0  0  0
    4.9977    3.3814    0.0000 H   0  0  0  0  0  0  0  0  0  0  0  0
   12.9474   -1.9477    0.0000 H   0  0  0  0  0  0  0  0  0  0  0  0
    8.4475   -4.4581    0.0000 H   0  0  0  0  0  0  0  0  0  0  0  0
   10.0954    4.9150    0.0000 H   0  0  0  0  0  0  0  0  0  0  0  0
    5.0182   -3.8923    0.0000 H   0  0  0  0  0  0  0  0  0  0  0  0
   10.2643   -4.5293    0.0000 H   0  0  0  0  0  0  0  0  0  0  0  0
   11.8063   -2.1851    0.0000 H   0  0  0  0  0  0  0  0  0  0  0  0
    6.6793    3.3200    0.0000 H   0  0  0  0  0  0  0  0  0  0  0  0
   11.1888   -2.1879    0.0000 H   0  0  0  0  0  0  0  0  0  0  0  0
   13.1598   -3.0754    0.0000 H   0  0  0  0  0  0  0  0  0  0  0  0
    3.3205    3.5187    0.0000 H   0  0  0  0  0  0  0  0  0  0  0  0
   15.0776   -0.6422    0.0000 H   0  0  0  0  0  0  0  0  0  0  0  0
   13.3333    4.8860    0.0000 H   0  0  0  0  0  0  0  0  0  0  0  0
    2.0000   -2.7197    0.0000 H   0  0  0  0  0  0  0  0  0  0  0  0
   11.3202    6.1397    0.0000 H   0  0  0  0  0  0  0  0  0  0  0  0
    3.4393   -4.6046    0.0000 H   0  0  0  0  0  0  0  0  0  0  0  0
   12.1136   -6.1397    0.0000 H   0  0  0  0  0  0  0  0  0  0  0  0
   13.9370   -4.6233    0.0000 H   0  0  0  0  0  0  0  0  0  0  0  0
  1 25  1  0  0  0  0
  1 26  1  0  0  0  0
  2 27  1  0  0  0  0
  2 28  1  0  0  0  0
  3 25  1  0  0  0  0
  3 36  1  0  0  0  0
  4 27  1  0  0  0  0
  4 37  1  0  0  0  0
  5 30  1  0  0  0  0
  5 35  1  0  0  0  0
 23  6  1  1  0  0  0
  6 72  1  0  0  0  0
 24  7  1  6  0  0  0
  7 73  1  0  0  0  0
 34  8  1  6  0  0  0
  8 82  1  0  0  0  0
  9 40  1  0  0  0  0
  9 87  1  0  0  0  0
 10 41  1  0  0  0  0
 10 88  1  0  0  0  0
 11 51  1  0  0  0  0
 11 90  1  0  0  0  0
 12 52  1  0  0  0  0
 12 91  1  0  0  0  0
 13 53  1  0  0  0  0
 13 92  1  0  0  0  0
 14 54  1  0  0  0  0
 14 93  1  0  0  0  0
 15 59  1  0  0  0  0
 15 94  1  0  0  0  0
 16 60  1  0  0  0  0
 16 95  1  0  0  0  0
 17 61  1  0  0  0  0
 17 96  1  0  0  0  0
 18 63  1  0  0  0  0
 18 97  1  0  0  0  0
 19 21  1  0  0  0  0
 19 24  1  0  0  0  0
 19 31  1  0  0  0  0
 19 64  1  1  0  0  0
 20 22  1  0  0  0  0
 20 23  1  0  0  0  0
 20 32  1  0  0  0  0
 20 65  1  1  0  0  0
 21 26  1  0  0  0  0
 21 28  2  0  0  0  0
 22 26  2  0  0  0  0
 22 30  1  0  0  0  0
 23 25  1  0  0  0  0
 23 66  1  0  0  0  0
 24 27  1  0  0  0  0
 24 67  1  0  0  0  0
 25 38  1  6  0  0  0
 27 39  1  1  0  0  0
 28 29  1  0  0  0  0
 29 30  2  0  0  0  0
 29 33  1  0  0  0  0
 31 37  1  0  0  0  0
 31 40  2  0  0  0  0
 32 36  1  0  0  0  0
 32 41  2  0  0  0  0
 33 34  1  0  0  0  0
 33 68  1  0  0  0  0
 33 69  1  0  0  0  0
 34 35  1  0  0  0  0
 34 70  1  0  0  0  0
 35 44  1  6  0  0  0
 35 71  1  0  0  0  0
 36 42  2  0  0  0  0
 37 43  2  0  0  0  0
 38 45  2  0  0  0  0
 38 46  1  0  0  0  0
 39 47  2  0  0  0  0
 39 48  1  0  0  0  0
 40 49  1  0  0  0  0
 41 50  1  0  0  0  0
 42 52  1  0  0  0  0
 42 74  1  0  0  0  0
 43 51  1  0  0  0  0
 43 75  1  0  0  0  0
 44 57  2  0  0  0  0
 44 58  1  0  0  0  0
 45 53  1  0  0  0  0
 45 76  1  0  0  0  0
 46 55  2  0  0  0  0
 46 77  1  0  0  0  0
 47 54  1  0  0  0  0
 47 78  1  0  0  0  0
 48 56  2  0  0  0  0
 48 79  1  0  0  0  0
 49 51  2  0  0  0  0
 49 80  1  0  0  0  0
 50 52  2  0  0  0  0
 50 81  1  0  0  0  0
 53 59  2  0  0  0  0
 54 60  2  0  0  0  0
 55 59  1  0  0  0  0
 55 83  1  0  0  0  0
 56 60  1  0  0  0  0
 56 84  1  0  0  0  0
 57 61  1  0  0  0  0
 57 85  1  0  0  0  0
 58 62  2  0  0  0  0
 58 86  1  0  0  0  0
 61 63  2  0  0  0  0
 62 63  1  0  0  0  0
 62 89  1  0  0  0  0
M  END
> <PUBCHEM_COMPOUND_CID>
50908261

> <PUBCHEM_COMPOUND_CANONICALIZED>
1

> <PUBCHEM_CACTVS_COMPLEXITY>
1680

> <PUBCHEM_CACTVS_HBOND_ACCEPTOR>
18

> <PUBCHEM_CACTVS_HBOND_DONOR>
13

> <PUBCHEM_CACTVS_ROTATABLE_BOND>
3

> <PUBCHEM_CACTVS_SUBSKEYS>
AAADcfB8PgAAAAAAAAAAAAAAAAAAAAAAAAA0aNGjQAASJACRVAAAGgAACAAADRSgmAIwDoAABgCAAiBCAAACCAAgIAAIiAAGiIgdNyKGMRqieCGlwBUPuAfA4PwOoAADCAAIQABAAAYQABCAAAAAAAAAAA==

> <PUBCHEM_IUPAC_OPENEYE_NAME>
(1R,5S,13R,17R,18R,23S,31R,32R)-5,17,23-tris(3,4-dihydroxyphenyl)-4,6,16,22,24-pentaoxaoctacyclo[21.7.1.15,13.02,21.03,14.07,12.015,20.025,30]dotriaconta-2(21),3(14),7,9,11,15(20),25,27,29-nonaene-9,11,18,27,29,31,32-heptol

> <PUBCHEM_IUPAC_CAS_NAME>
(1R,5S,13R,17R,18R,23S,31R,32R)-5,17,23-tris(3,4-dihydroxyphenyl)-4,6,16,22,24-pentaoxaoctacyclo[21.7.1.15,13.02,21.03,14.07,12.015,20.025,30]dotriaconta-2(21),3(14),7,9,11,15(20),25,27,29-nonaene-9,11,18,27,29,31,32-heptol

> <PUBCHEM_IUPAC_NAME_MARKUP>
(1<I>R</I>,5<I>S</I>,13<I>R</I>,17<I>R</I>,18<I>R</I>,23<I>S</I>,31<I>R</I>,32<I>R</I>)-5,17,23-tris(3,4-dihydroxyphenyl)-4,6,16,22,24-pentaoxaoctacyclo[21.7.1.1<SUP>5,13</SUP>.0<SUP>2,21</SUP>.0<SUP>3,14</SUP>.0<SUP>7,12</SUP>.0<SUP>15,20</SUP>.0<SUP>25,30</SUP>]dotriaconta-2(21),3(14),7,9,11,15(20),25,27,29-nonaene-9,11,18,27,29,31,32-heptol

> <PUBCHEM_IUPAC_NAME>
(1R,5S,13R,17R,18R,23S,31R,32R)-5,17,23-tris(3,4-dihydroxyphenyl)-4,6,16,22,24-pentaoxaoctacyclo[21.7.1.15,13.02,21.03,14.07,12.015,20.025,30]dotriaconta-2(21),3(14),7,9,11,15(20),25,27,29-nonaene-9,11,18,27,29,31,32-heptol

> <PUBCHEM_IUPAC_SYSTEMATIC_NAME>
(1R,5S,13R,17R,18R,23S,31R,32R)-5,17,23-tris[3,4-bis(oxidanyl)phenyl]-4,6,16,22,24-pentaoxaoctacyclo[21.7.1.15,13.02,21.03,14.07,12.015,20.025,30]dotriaconta-2(21),3(14),7,9,11,15(20),25,27,29-nonaene-9,11,18,27,29,31,32-heptol

> <PUBCHEM_IUPAC_TRADITIONAL_NAME>
(1R,5S,13R,17R,18R,23S,31R,32R)-5,17,23-tris(3,4-dihydroxyphenyl)-4,6,16,22,24-pentaoxaoctacyclo[21.7.1.15,13.02,21.03,14.07,12.015,20.025,30]dotriaconta-2(21),3(14),7,9,11,15(20),25,27,29-nonaene-9,11,18,27,29,31,32-heptol

> <PUBCHEM_IUPAC_INCHI>
InChI=1S/C45H34O18/c46-18-10-27(54)32-30(12-18)61-45(17-3-6-23(50)26(53)9-17)42(57)34(32)36-39-20(14-29(56)38(59-39)15-1-4-21(48)24(51)7-15)40-37(41(36)63-45)35-33-28(55)11-19(47)13-31(33)60-44(62-40,43(35)58)16-2-5-22(49)25(52)8-16/h1-13,29,34-35,38,42-43,46-58H,14H2/t29-,34-,35-,38-,42-,43-,44+,45+/m1/s1

> <PUBCHEM_IUPAC_INCHIKEY>
FBUXAMYFTPJDIX-ZQRXMBECSA-N

> <PUBCHEM_XLOGP3_AA>
3.4

> <PUBCHEM_EXACT_MASS>
862.174514

> <PUBCHEM_MOLECULAR_FORMULA>
C45H34O18

> <PUBCHEM_MOLECULAR_WEIGHT>
862.7

> <PUBCHEM_OPENEYE_CAN_SMILES>
C1C(C(OC2=C1C3=C(C4C(C(O3)(OC5=CC(=CC(=C45)O)O)C6=CC(=C(C=C6)O)O)O)C7=C2C8C(C(O7)(OC9=CC(=CC(=C89)O)O)C1=CC(=C(C=C1)O)O)O)C1=CC(=C(C=C1)O)O)O

> <PUBCHEM_OPENEYE_ISO_SMILES>
C1[C@H]([C@H](OC2=C1C3=C([C@@H]4[C@H]([C@](O3)(OC5=CC(=CC(=C45)O)O)C6=CC(=C(C=C6)O)O)O)C7=C2[C@@H]8[C@H]([C@](O7)(OC9=CC(=CC(=C89)O)O)C1=CC(=C(C=C1)O)O)O)C1=CC(=C(C=C1)O)O)O

> <PUBCHEM_CACTVS_TPSA>
309

> <PUBCHEM_MONOISOTOPIC_WEIGHT>
862.174514

> <PUBCHEM_TOTAL_CHARGE>
0

> <PUBCHEM_HEAVY_ATOM_COUNT>
63

> <PUBCHEM_ATOM_DEF_STEREO_COUNT>
8

> <PUBCHEM_ATOM_UDEF_STEREO_COUNT>
0

> <PUBCHEM_BOND_DEF_STEREO_COUNT>
0

> <PUBCHEM_BOND_UDEF_STEREO_COUNT>
0

> <PUBCHEM_ISOTOPIC_ATOM_COUNT>
0

> <PUBCHEM_COMPONENT_COUNT>
1

> <PUBCHEM_CACTVS_TAUTO_COUNT>
-1

> <PUBCHEM_COORDINATE_TYPE>
1
5
255

> <PUBCHEM_BONDANNOTATIONS>
19  64  5
20  65  5
21  26  8
21  28  8
22  26  8
22  30  8
25  38  6
27  39  5
28  29  8
29  30  8
31  37  8
31  40  8
32  36  8
32  41  8
35  44  6
36  42  8
37  43  8
38  45  8
38  46  8
39  47  8
39  48  8
40  49  8
41  50  8
42  52  8
43  51  8
44  57  8
44  58  8
45  53  8
46  55  8
47  54  8
48  56  8
49  51  8
50  52  8
53  59  8
54  60  8
55  59  8
56  60  8
57  61  8
58  62  8
23  6  5
61  63  8
62  63  8
24  7  6
34  8  6

$$$$
