91693082
  -OEChem-08302011322D

125124  0     0  0  0  0  0  0999 V2000
   37.1410   -0.7990    0.0000 F   0  0  0  0  0  0  0  0  0  0  0  0
   36.1410    0.9330    0.0000 F   0  0  0  0  0  0  0  0  0  0  0  0
   38.3731    1.0670    0.0000 F   0  0  0  0  0  0  0  0  0  0  0  0
   37.0070    1.4330    0.0000 F   0  0  0  0  0  0  0  0  0  0  0  0
   38.0070   -0.2990    0.0000 F   0  0  0  0  0  0  0  0  0  0  0  0
   34.9090    0.0670    0.0000 O   0  0  0  0  0  0  0  0  0  0  0  0
   35.7750   -1.4330    0.0000 O   0  0  0  0  0  0  0  0  0  0  0  0
   18.4545   -0.4330    0.0000 C   0  0  0  0  0  0  0  0  0  0  0  0
   17.5885    0.0670    0.0000 C   0  0  0  0  0  0  0  0  0  0  0  0
   19.3205    0.0670    0.0000 C   0  0  0  0  0  0  0  0  0  0  0  0
   16.7224   -0.4330    0.0000 C   0  0  0  0  0  0  0  0  0  0  0  0
   20.1865   -0.4330    0.0000 C   0  0  0  0  0  0  0  0  0  0  0  0
   15.8564    0.0670    0.0000 C   0  0  0  0  0  0  0  0  0  0  0  0
   21.0526    0.0670    0.0000 C   0  0  0  0  0  0  0  0  0  0  0  0
   14.9904   -0.4330    0.0000 C   0  0  0  0  0  0  0  0  0  0  0  0
   21.9186   -0.4330    0.0000 C   0  0  0  0  0  0  0  0  0  0  0  0
   14.1244    0.0670    0.0000 C   0  0  0  0  0  0  0  0  0  0  0  0
   22.7846    0.0670    0.0000 C   0  0  0  0  0  0  0  0  0  0  0  0
   13.2583   -0.4330    0.0000 C   0  0  0  0  0  0  0  0  0  0  0  0
   23.6506   -0.4330    0.0000 C   0  0  0  0  0  0  0  0  0  0  0  0
   12.3923    0.0670    0.0000 C   0  0  0  0  0  0  0  0  0  0  0  0
   24.5167    0.0670    0.0000 C   0  0  0  0  0  0  0  0  0  0  0  0
   11.5263   -0.4330    0.0000 C   0  0  0  0  0  0  0  0  0  0  0  0
   25.3827   -0.4330    0.0000 C   0  0  0  0  0  0  0  0  0  0  0  0
   10.6603    0.0670    0.0000 C   0  0  0  0  0  0  0  0  0  0  0  0
   26.2487    0.0670    0.0000 C   0  0  0  0  0  0  0  0  0  0  0  0
    9.7942   -0.4330    0.0000 C   0  0  0  0  0  0  0  0  0  0  0  0
   27.1147   -0.4330    0.0000 C   0  0  0  0  0  0  0  0  0  0  0  0
    8.9282    0.0670    0.0000 C   0  0  0  0  0  0  0  0  0  0  0  0
   27.9808    0.0670    0.0000 C   0  0  0  0  0  0  0  0  0  0  0  0
    8.0622   -0.4330    0.0000 C   0  0  0  0  0  0  0  0  0  0  0  0
   28.8468   -0.4330    0.0000 C   0  0  0  0  0  0  0  0  0  0  0  0
    7.1962    0.0670    0.0000 C   0  0  0  0  0  0  0  0  0  0  0  0
   29.7128    0.0670    0.0000 C   0  0  0  0  0  0  0  0  0  0  0  0
    6.3301   -0.4330    0.0000 C   0  0  0  0  0  0  0  0  0  0  0  0
   30.5788   -0.4330    0.0000 C   0  0  0  0  0  0  0  0  0  0  0  0
    5.4641    0.0670    0.0000 C   0  0  0  0  0  0  0  0  0  0  0  0
   31.4449    0.0670    0.0000 C   0  0  0  0  0  0  0  0  0  0  0  0
    4.5981   -0.4330    0.0000 C   0  0  0  0  0  0  0  0  0  0  0  0
   32.3109   -0.4330    0.0000 C   0  0  0  0  0  0  0  0  0  0  0  0
    3.7320    0.0670    0.0000 C   0  0  0  0  0  0  0  0  0  0  0  0
   33.1769    0.0670    0.0000 C   0  0  0  0  0  0  0  0  0  0  0  0
    2.8660   -0.4330    0.0000 C   0  0  0  0  0  0  0  0  0  0  0  0
   34.0429   -0.4330    0.0000 C   0  0  0  0  0  0  0  0  0  0  0  0
    2.0000    0.0670    0.0000 C   0  0  0  0  0  0  0  0  0  0  0  0
   35.7750   -0.4330    0.0000 C   0  0  0  0  0  0  0  0  0  0  0  0
   36.6410    0.0670    0.0000 C   0  0  0  0  0  0  0  0  0  0  0  0
   37.5070    0.5670    0.0000 C   0  0  0  0  0  0  0  0  0  0  0  0
   18.0560   -0.9080    0.0000 H   0  0  0  0  0  0  0  0  0  0  0  0
   18.8530   -0.9080    0.0000 H   0  0  0  0  0  0  0  0  0  0  0  0
   17.9870    0.5419    0.0000 H   0  0  0  0  0  0  0  0  0  0  0  0
   17.1899    0.5419    0.0000 H   0  0  0  0  0  0  0  0  0  0  0  0
   19.7190    0.5419    0.0000 H   0  0  0  0  0  0  0  0  0  0  0  0
   18.9220    0.5419    0.0000 H   0  0  0  0  0  0  0  0  0  0  0  0
   16.3239   -0.9080    0.0000 H   0  0  0  0  0  0  0  0  0  0  0  0
   17.1210   -0.9080    0.0000 H   0  0  0  0  0  0  0  0  0  0  0  0
   19.7880   -0.9080    0.0000 H   0  0  0  0  0  0  0  0  0  0  0  0
   20.5851   -0.9080    0.0000 H   0  0  0  0  0  0  0  0  0  0  0  0
   16.2549    0.5419    0.0000 H   0  0  0  0  0  0  0  0  0  0  0  0
   15.4579    0.5419    0.0000 H   0  0  0  0  0  0  0  0  0  0  0  0
   21.4511    0.5419    0.0000 H   0  0  0  0  0  0  0  0  0  0  0  0
   20.6540    0.5419    0.0000 H   0  0  0  0  0  0  0  0  0  0  0  0
   14.5919   -0.9080    0.0000 H   0  0  0  0  0  0  0  0  0  0  0  0
   15.3889   -0.9080    0.0000 H   0  0  0  0  0  0  0  0  0  0  0  0
   21.5201   -0.9080    0.0000 H   0  0  0  0  0  0  0  0  0  0  0  0
   22.3171   -0.9080    0.0000 H   0  0  0  0  0  0  0  0  0  0  0  0
   14.5229    0.5419    0.0000 H   0  0  0  0  0  0  0  0  0  0  0  0
   13.7258    0.5419    0.0000 H   0  0  0  0  0  0  0  0  0  0  0  0
   23.1831    0.5419    0.0000 H   0  0  0  0  0  0  0  0  0  0  0  0
   22.3861    0.5419    0.0000 H   0  0  0  0  0  0  0  0  0  0  0  0
   12.8598   -0.9080    0.0000 H   0  0  0  0  0  0  0  0  0  0  0  0
   13.6569   -0.9080    0.0000 H   0  0  0  0  0  0  0  0  0  0  0  0
   23.2521   -0.9080    0.0000 H   0  0  0  0  0  0  0  0  0  0  0  0
   24.0492   -0.9080    0.0000 H   0  0  0  0  0  0  0  0  0  0  0  0
   12.7908    0.5419    0.0000 H   0  0  0  0  0  0  0  0  0  0  0  0
   11.9938    0.5419    0.0000 H   0  0  0  0  0  0  0  0  0  0  0  0
   24.9152    0.5419    0.0000 H   0  0  0  0  0  0  0  0  0  0  0  0
   24.1181    0.5419    0.0000 H   0  0  0  0  0  0  0  0  0  0  0  0
   11.1278   -0.9080    0.0000 H   0  0  0  0  0  0  0  0  0  0  0  0
   11.9248   -0.9080    0.0000 H   0  0  0  0  0  0  0  0  0  0  0  0
   24.9842   -0.9080    0.0000 H   0  0  0  0  0  0  0  0  0  0  0  0
   25.7812   -0.9080    0.0000 H   0  0  0  0  0  0  0  0  0  0  0  0
   11.0588    0.5419    0.0000 H   0  0  0  0  0  0  0  0  0  0  0  0
   10.2617    0.5419    0.0000 H   0  0  0  0  0  0  0  0  0  0  0  0
   26.6472    0.5419    0.0000 H   0  0  0  0  0  0  0  0  0  0  0  0
   25.8502    0.5419    0.0000 H   0  0  0  0  0  0  0  0  0  0  0  0
    9.3957   -0.9080    0.0000 H   0  0  0  0  0  0  0  0  0  0  0  0
   10.1928   -0.9080    0.0000 H   0  0  0  0  0  0  0  0  0  0  0  0
   26.7162   -0.9080    0.0000 H   0  0  0  0  0  0  0  0  0  0  0  0
   27.5133   -0.9080    0.0000 H   0  0  0  0  0  0  0  0  0  0  0  0
    9.3267    0.5419    0.0000 H   0  0  0  0  0  0  0  0  0  0  0  0
    8.5297    0.5419    0.0000 H   0  0  0  0  0  0  0  0  0  0  0  0
   28.3793    0.5419    0.0000 H   0  0  0  0  0  0  0  0  0  0  0  0
   27.5822    0.5419    0.0000 H   0  0  0  0  0  0  0  0  0  0  0  0
    7.6636   -0.9080    0.0000 H   0  0  0  0  0  0  0  0  0  0  0  0
    8.4607   -0.9080    0.0000 H   0  0  0  0  0  0  0  0  0  0  0  0
   28.4483   -0.9080    0.0000 H   0  0  0  0  0  0  0  0  0  0  0  0
   29.2453   -0.9080    0.0000 H   0  0  0  0  0  0  0  0  0  0  0  0
    7.5947    0.5419    0.0000 H   0  0  0  0  0  0  0  0  0  0  0  0
    6.7976    0.5419    0.0000 H   0  0  0  0  0  0  0  0  0  0  0  0
   30.1113    0.5419    0.0000 H   0  0  0  0  0  0  0  0  0  0  0  0
   29.3143    0.5419    0.0000 H   0  0  0  0  0  0  0  0  0  0  0  0
    5.9316   -0.9080    0.0000 H   0  0  0  0  0  0  0  0  0  0  0  0
    6.7287   -0.9080    0.0000 H   0  0  0  0  0  0  0  0  0  0  0  0
   30.1803   -0.9080    0.0000 H   0  0  0  0  0  0  0  0  0  0  0  0
   30.9774   -0.9080    0.0000 H   0  0  0  0  0  0  0  0  0  0  0  0
    5.8626    0.5419    0.0000 H   0  0  0  0  0  0  0  0  0  0  0  0
    5.0656    0.5419    0.0000 H   0  0  0  0  0  0  0  0  0  0  0  0
   31.8434    0.5419    0.0000 H   0  0  0  0  0  0  0  0  0  0  0  0
   31.0463    0.5419    0.0000 H   0  0  0  0  0  0  0  0  0  0  0  0
    4.1996   -0.9080    0.0000 H   0  0  0  0  0  0  0  0  0  0  0  0
    4.9966   -0.9080    0.0000 H   0  0  0  0  0  0  0  0  0  0  0  0
   31.9124   -0.9080    0.0000 H   0  0  0  0  0  0  0  0  0  0  0  0
   32.7094   -0.9080    0.0000 H   0  0  0  0  0  0  0  0  0  0  0  0
    4.1306    0.5419    0.0000 H   0  0  0  0  0  0  0  0  0  0  0  0
    3.3335    0.5419    0.0000 H   0  0  0  0  0  0  0  0  0  0  0  0
   33.5754    0.5419    0.0000 H   0  0  0  0  0  0  0  0  0  0  0  0
   32.7784    0.5419    0.0000 H   0  0  0  0  0  0  0  0  0  0  0  0
    2.4675   -0.9080    0.0000 H   0  0  0  0  0  0  0  0  0  0  0  0
    3.2646   -0.9080    0.0000 H   0  0  0  0  0  0  0  0  0  0  0  0
   33.6444   -0.9080    0.0000 H   0  0  0  0  0  0  0  0  0  0  0  0
   34.4415   -0.9080    0.0000 H   0  0  0  0  0  0  0  0  0  0  0  0
    2.3100    0.6039    0.0000 H   0  0  0  0  0  0  0  0  0  0  0  0
    1.4631    0.3770    0.0000 H   0  0  0  0  0  0  0  0  0  0  0  0
    1.6900   -0.4699    0.0000 H   0  0  0  0  0  0  0  0  0  0  0  0
  1 47  1  0  0  0  0
  2 47  1  0  0  0  0
  3 48  1  0  0  0  0
  4 48  1  0  0  0  0
  5 48  1  0  0  0  0
  6 44  1  0  0  0  0
  6 46  1  0  0  0  0
  7 46  2  0  0  0  0
  8  9  1  0  0  0  0
  8 10  1  0  0  0  0
  8 49  1  0  0  0  0
  8 50  1  0  0  0  0
  9 11  1  0  0  0  0
  9 51  1  0  0  0  0
  9 52  1  0  0  0  0
 10 12  1  0  0  0  0
 10 53  1  0  0  0  0
 10 54  1  0  0  0  0
 11 13  1  0  0  0  0
 11 55  1  0  0  0  0
 11 56  1  0  0  0  0
 12 14  1  0  0  0  0
 12 57  1  0  0  0  0
 12 58  1  0  0  0  0
 13 15  1  0  0  0  0
 13 59  1  0  0  0  0
 13 60  1  0  0  0  0
 14 16  1  0  0  0  0
 14 61  1  0  0  0  0
 14 62  1  0  0  0  0
 15 17  1  0  0  0  0
 15 63  1  0  0  0  0
 15 64  1  0  0  0  0
 16 18  1  0  0  0  0
 16 65  1  0  0  0  0
 16 66  1  0  0  0  0
 17 19  1  0  0  0  0
 17 67  1  0  0  0  0
 17 68  1  0  0  0  0
 18 20  1  0  0  0  0
 18 69  1  0  0  0  0
 18 70  1  0  0  0  0
 19 21  1  0  0  0  0
 19 71  1  0  0  0  0
 19 72  1  0  0  0  0
 20 22  1  0  0  0  0
 20 73  1  0  0  0  0
 20 74  1  0  0  0  0
 21 23  1  0  0  0  0
 21 75  1  0  0  0  0
 21 76  1  0  0  0  0
 22 24  1  0  0  0  0
 22 77  1  0  0  0  0
 22 78  1  0  0  0  0
 23 25  1  0  0  0  0
 23 79  1  0  0  0  0
 23 80  1  0  0  0  0
 24 26  1  0  0  0  0
 24 81  1  0  0  0  0
 24 82  1  0  0  0  0
 25 27  1  0  0  0  0
 25 83  1  0  0  0  0
 25 84  1  0  0  0  0
 26 28  1  0  0  0  0
 26 85  1  0  0  0  0
 26 86  1  0  0  0  0
 27 29  1  0  0  0  0
 27 87  1  0  0  0  0
 27 88  1  0  0  0  0
 28 30  1  0  0  0  0
 28 89  1  0  0  0  0
 28 90  1  0  0  0  0
 29 31  1  0  0  0  0
 29 91  1  0  0  0  0
 29 92  1  0  0  0  0
 30 32  1  0  0  0  0
 30 93  1  0  0  0  0
 30 94  1  0  0  0  0
 31 33  1  0  0  0  0
 31 95  1  0  0  0  0
 31 96  1  0  0  0  0
 32 34  1  0  0  0  0
 32 97  1  0  0  0  0
 32 98  1  0  0  0  0
 33 35  1  0  0  0  0
 33 99  1  0  0  0  0
 33100  1  0  0  0  0
 34 36  1  0  0  0  0
 34101  1  0  0  0  0
 34102  1  0  0  0  0
 35 37  1  0  0  0  0
 35103  1  0  0  0  0
 35104  1  0  0  0  0
 36 38  1  0  0  0  0
 36105  1  0  0  0  0
 36106  1  0  0  0  0
 37 39  1  0  0  0  0
 37107  1  0  0  0  0
 37108  1  0  0  0  0
 38 40  1  0  0  0  0
 38109  1  0  0  0  0
 38110  1  0  0  0  0
 39 41  1  0  0  0  0
 39111  1  0  0  0  0
 39112  1  0  0  0  0
 40 42  1  0  0  0  0
 40113  1  0  0  0  0
 40114  1  0  0  0  0
 41 43  1  0  0  0  0
 41115  1  0  0  0  0
 41116  1  0  0  0  0
 42 44  1  0  0  0  0
 42117  1  0  0  0  0
 42118  1  0  0  0  0
 43 45  1  0  0  0  0
 43119  1  0  0  0  0
 43120  1  0  0  0  0
 44121  1  0  0  0  0
 44122  1  0  0  0  0
 45123  1  0  0  0  0
 45124  1  0  0  0  0
 45125  1  0  0  0  0
 46 47  1  0  0  0  0
 47 48  1  0  0  0  0
M  END
> <PUBCHEM_COMPOUND_CID>
91693082

> <PUBCHEM_COMPOUND_CANONICALIZED>
1

> <PUBCHEM_CACTVS_COMPLEXITY>
668

> <PUBCHEM_CACTVS_HBOND_ACCEPTOR>
7

> <PUBCHEM_CACTVS_HBOND_DONOR>
0

> <PUBCHEM_CACTVS_ROTATABLE_BOND>
39

> <PUBCHEM_CACTVS_SUBSKEYS>
AAADcfB8McAAAAAAAAAAAAAAAAAAAAAAAAAAAAAAAAAAAAAAAAAAGwAAAAAACACggBICCAAABAAIAACQCAAAAAAAAAAAAAEAAAAAAAIAAAACAAAEAAAAAAGAwKAAAAAAAAAAAAAAAAAAAAAAAAAAAAAAAA==

> <PUBCHEM_IUPAC_OPENEYE_NAME>
octatriacontyl 2,2,3,3,3-pentafluoropropanoate

> <PUBCHEM_IUPAC_CAS_NAME>
2,2,3,3,3-pentafluoropropanoic acid octatriacontyl ester

> <PUBCHEM_IUPAC_NAME_MARKUP>
octatriacontyl 2,2,3,3,3-pentafluoropropanoate

> <PUBCHEM_IUPAC_NAME>
octatriacontyl 2,2,3,3,3-pentafluoropropanoate

> <PUBCHEM_IUPAC_SYSTEMATIC_NAME>
octatriacontyl 2,2,3,3,3-pentakis(fluoranyl)propanoate

> <PUBCHEM_IUPAC_TRADITIONAL_NAME>
2,2,3,3,3-pentafluoropropionic acid octatriacontyl ester

> <PUBCHEM_IUPAC_INCHI>
InChI=1S/C41H77F5O2/c1-2-3-4-5-6-7-8-9-10-11-12-13-14-15-16-17-18-19-20-21-22-23-24-25-26-27-28-29-30-31-32-33-34-35-36-37-38-48-39(47)40(42,43)41(44,45)46/h2-38H2,1H3

> <PUBCHEM_IUPAC_INCHIKEY>
YWJGNYMMXDJUCM-UHFFFAOYSA-N

> <PUBCHEM_XLOGP3>
21.4

> <PUBCHEM_EXACT_MASS>
696.584373

> <PUBCHEM_MOLECULAR_FORMULA>
C41H77F5O2

> <PUBCHEM_MOLECULAR_WEIGHT>
697

> <PUBCHEM_OPENEYE_CAN_SMILES>
CCCCCCCCCCCCCCCCCCCCCCCCCCCCCCCCCCCCCCOC(=O)C(C(F)(F)F)(F)F

> <PUBCHEM_OPENEYE_ISO_SMILES>
CCCCCCCCCCCCCCCCCCCCCCCCCCCCCCCCCCCCCCOC(=O)C(C(F)(F)F)(F)F

> <PUBCHEM_CACTVS_TPSA>
26.3

> <PUBCHEM_MONOISOTOPIC_WEIGHT>
696.584373

> <PUBCHEM_TOTAL_CHARGE>
0

> <PUBCHEM_HEAVY_ATOM_COUNT>
48

> <PUBCHEM_ATOM_DEF_STEREO_COUNT>
0

> <PUBCHEM_ATOM_UDEF_STEREO_COUNT>
0

> <PUBCHEM_BOND_DEF_STEREO_COUNT>
0

> <PUBCHEM_BOND_UDEF_STEREO_COUNT>
0

> <PUBCHEM_ISOTOPIC_ATOM_COUNT>
0

> <PUBCHEM_COMPONENT_COUNT>
1

> <PUBCHEM_CACTVS_TAUTO_COUNT>
-1

> <PUBCHEM_COORDINATE_TYPE>
1
5
255

$$$$
