102067226
  -OEChem-08302010102D

 39 43  0     1  0  0  0  0  0999 V2000
    2.8652   -2.5014    0.0000 O   0  0  0  0  0  0  0  0  0  0  0  0
    3.5617   -0.0278    0.0000 O   0  0  0  0  0  0  0  0  0  0  0  0
    5.9438   -2.2435    0.0000 O   0  0  0  0  0  0  0  0  0  0  0  0
    7.9936   -0.3615    0.0000 O   0  0  0  0  0  0  0  0  0  0  0  0
    2.0000   -0.8318    0.0000 O   0  0  0  0  0  0  0  0  0  0  0  0
    8.2348   -2.1935    0.0000 O   0  0  0  0  0  0  0  0  0  0  0  0
    4.2858   -1.1251    0.0000 C   0  0  1  0  0  0  0  0  0  0  0  0
    3.5040   -1.7391    0.0000 C   0  0  1  0  0  0  0  0  0  0  0  0
    5.1148   -1.6843    0.0000 C   0  0  2  0  0  0  0  0  0  0  0  0
    3.8448   -2.6730    0.0000 C   0  0  1  0  0  0  0  0  0  0  0  0
    4.5614   -0.1638    0.0000 C   0  0  1  0  0  0  0  0  0  0  0  0
    4.8383   -2.6391    0.0000 C   0  0  0  0  0  0  0  0  0  0  0  0
    6.3358   -0.8186    0.0000 C   0  0  2  0  0  0  0  0  0  0  0  0
    6.5947    0.1473    0.0000 C   0  0  2  0  0  0  0  0  0  0  0  0
    5.8580    1.1299    0.0000 C   0  0  1  0  0  0  0  0  0  0  0  0
    2.9994   -0.8655    0.0000 C   0  0  0  0  0  0  0  0  0  0  0  0
    4.0101   -2.0864    0.0000 C   0  0  0  0  0  0  0  0  0  0  0  0
    7.7348   -1.3274    0.0000 C   0  0  0  0  0  0  0  0  0  0  0  0
    5.3580    1.9959    0.0000 C   0  0  0  0  0  0  0  0  0  0  0  0
    5.8580    2.8620    0.0000 C   0  0  0  0  0  0  0  0  0  0  0  0
    4.3580    1.9959    0.0000 C   0  0  0  0  0  0  0  0  0  0  0  0
    3.7856   -3.5209    0.0000 H   0  0  0  0  0  0  0  0  0  0  0  0
    4.7957    0.6532    0.0000 H   0  0  0  0  0  0  0  0  0  0  0  0
    4.7942   -3.2576    0.0000 H   0  0  0  0  0  0  0  0  0  0  0  0
    5.4487   -2.7480    0.0000 H   0  0  0  0  0  0  0  0  0  0  0  0
    6.1158   -1.6397    0.0000 H   0  0  0  0  0  0  0  0  0  0  0  0
    6.8146    0.9683    0.0000 H   0  0  0  0  0  0  0  0  0  0  0  0
    6.3755    1.4715    0.0000 H   0  0  0  0  0  0  0  0  0  0  0  0
    3.4142   -1.9155    0.0000 H   0  0  0  0  0  0  0  0  0  0  0  0
    3.8392   -2.6823    0.0000 H   0  0  0  0  0  0  0  0  0  0  0  0
    4.6061   -2.2572    0.0000 H   0  0  0  0  0  0  0  0  0  0  0  0
    5.9780    1.9959    0.0000 H   0  0  0  0  0  0  0  0  0  0  0  0
    5.9006   -2.8620    0.0000 H   0  0  0  0  0  0  0  0  0  0  0  0
    6.3950    2.5520    0.0000 H   0  0  0  0  0  0  0  0  0  0  0  0
    6.1680    3.3989    0.0000 H   0  0  0  0  0  0  0  0  0  0  0  0
    5.3211    3.1720    0.0000 H   0  0  0  0  0  0  0  0  0  0  0  0
    4.3580    2.6159    0.0000 H   0  0  0  0  0  0  0  0  0  0  0  0
    3.7380    1.9959    0.0000 H   0  0  0  0  0  0  0  0  0  0  0  0
    4.3580    1.3759    0.0000 H   0  0  0  0  0  0  0  0  0  0  0  0
  8  1  1  1  0  0  0
  1 10  1  0  0  0  0
  2 11  1  0  0  0  0
  2 16  1  0  0  0  0
  9  3  1  1  0  0  0
  3 33  1  0  0  0  0
  4 14  1  0  0  0  0
  4 18  1  0  0  0  0
  5 16  2  0  0  0  0
  6 18  2  0  0  0  0
  7  8  1  0  0  0  0
  7  9  1  0  0  0  0
  7 11  1  0  0  0  0
  7 17  1  1  0  0  0
  8 10  1  0  0  0  0
  8 16  1  0  0  0  0
  9 12  1  0  0  0  0
  9 13  1  0  0  0  0
 10 12  1  0  0  0  0
 10 22  1  6  0  0  0
 11 14  1  0  0  0  0
 11 23  1  1  0  0  0
 12 24  1  0  0  0  0
 12 25  1  0  0  0  0
 13 15  1  0  0  0  0
 13 18  1  0  0  0  0
 13 26  1  1  0  0  0
 14 15  1  0  0  0  0
 14 27  1  1  0  0  0
 15 19  1  6  0  0  0
 15 28  1  0  0  0  0
 17 29  1  0  0  0  0
 17 30  1  0  0  0  0
 17 31  1  0  0  0  0
 19 20  1  0  0  0  0
 19 21  1  0  0  0  0
 19 32  1  0  0  0  0
 20 34  1  0  0  0  0
 20 35  1  0  0  0  0
 20 36  1  0  0  0  0
 21 37  1  0  0  0  0
 21 38  1  0  0  0  0
 21 39  1  0  0  0  0
M  END
> <PUBCHEM_COMPOUND_CID>
102067226

> <PUBCHEM_COMPOUND_CANONICALIZED>
1

> <PUBCHEM_CACTVS_COMPLEXITY>
601

> <PUBCHEM_CACTVS_HBOND_ACCEPTOR>
6

> <PUBCHEM_CACTVS_HBOND_DONOR>
1

> <PUBCHEM_CACTVS_ROTATABLE_BOND>
1

> <PUBCHEM_CACTVS_SUBSKEYS>
AAADceBwOAAAAAAAAAAAAAAAEgAAAaJEAAA0QAAABIASAGgAAAAAGgAACAAAD1SggAICCAAABgAIAACQCAIAAAAAAAAAAAFAAAABABYAAAQCQAAFIAACAAHK7PzPgAAAAAAAAADCAAYQADCAAYQADAAAAA==

> <PUBCHEM_IUPAC_OPENEYE_NAME>
(1R,3R,5S,8S,9S,12S,13R,14S)-1-hydroxy-14-isopropyl-13-methyl-4,7,10-trioxapentacyclo[6.4.1.19,12.03,5.05,13]tetradecane-6,11-dione

> <PUBCHEM_IUPAC_CAS_NAME>
(1R,3R,5S,8S,9S,12S,13R,14S)-1-hydroxy-13-methyl-14-propan-2-yl-4,7,10-trioxapentacyclo[6.4.1.19,12.03,5.05,13]tetradecane-6,11-dione

> <PUBCHEM_IUPAC_NAME_MARKUP>
(1<I>R</I>,3<I>R</I>,5<I>S</I>,8<I>S</I>,9<I>S</I>,12<I>S</I>,13<I>R</I>,14<I>S</I>)-1-hydroxy-13-methyl-14-propan-2-yl-4,7,10-trioxapentacyclo[6.4.1.1<SUP>9,12</SUP>.0<SUP>3,5</SUP>.0<SUP>5,13</SUP>]tetradecane-6,11-dione

> <PUBCHEM_IUPAC_NAME>
(1R,3R,5S,8S,9S,12S,13R,14S)-1-hydroxy-13-methyl-14-propan-2-yl-4,7,10-trioxapentacyclo[6.4.1.19,12.03,5.05,13]tetradecane-6,11-dione

> <PUBCHEM_IUPAC_SYSTEMATIC_NAME>
(1R,3R,5S,8S,9S,12S,13R,14S)-13-methyl-1-oxidanyl-14-propan-2-yl-4,7,10-trioxapentacyclo[6.4.1.19,12.03,5.05,13]tetradecane-6,11-dione

> <PUBCHEM_IUPAC_TRADITIONAL_NAME>
(1R,3R,5S,8S,9S,12S,13R,14S)-1-hydroxy-14-isopropyl-13-methyl-4,7,10-trioxapentacyclo[6.4.1.19,12.03,5.05,13]tetradecane-6,11-quinone

> <PUBCHEM_IUPAC_INCHI>
InChI=1S/C15H18O6/c1-5(2)7-8-11(16)19-9(7)10-13(3)14(8,18)4-6-15(13,21-6)12(17)20-10/h5-10,18H,4H2,1-3H3/t6-,7+,8-,9+,10-,13-,14-,15+/m1/s1

> <PUBCHEM_IUPAC_INCHIKEY>
SJSFJVFGSPJGET-WHHVQDKOSA-N

> <PUBCHEM_XLOGP3_AA>
0.6

> <PUBCHEM_EXACT_MASS>
294.110338

> <PUBCHEM_MOLECULAR_FORMULA>
C15H18O6

> <PUBCHEM_MOLECULAR_WEIGHT>
294.3

> <PUBCHEM_OPENEYE_CAN_SMILES>
CC(C)C1C2C3C4(C(C1C(=O)O2)(CC5C4(O5)C(=O)O3)O)C

> <PUBCHEM_OPENEYE_ISO_SMILES>
CC(C)[C@@H]1[C@H]2[C@@H]3[C@@]4([C@]([C@H]1C(=O)O2)(C[C@@H]5[C@]4(O5)C(=O)O3)O)C

> <PUBCHEM_CACTVS_TPSA>
85.4

> <PUBCHEM_MONOISOTOPIC_WEIGHT>
294.110338

> <PUBCHEM_TOTAL_CHARGE>
0

> <PUBCHEM_HEAVY_ATOM_COUNT>
21

> <PUBCHEM_ATOM_DEF_STEREO_COUNT>
8

> <PUBCHEM_ATOM_UDEF_STEREO_COUNT>
0

> <PUBCHEM_BOND_DEF_STEREO_COUNT>
0

> <PUBCHEM_BOND_UDEF_STEREO_COUNT>
0

> <PUBCHEM_ISOTOPIC_ATOM_COUNT>
0

> <PUBCHEM_COMPONENT_COUNT>
1

> <PUBCHEM_CACTVS_TAUTO_COUNT>
-1

> <PUBCHEM_COORDINATE_TYPE>
1
5
255

> <PUBCHEM_BONDANNOTATIONS>
8  1  5
10  22  6
11  23  5
13  26  5
14  27  5
15  19  6
9  3  5
7  17  5

$$$$
