122363
  -OEChem-08272003042D

 17 16  0     0  0  0  0  0  0999 V2000
    1.5426    0.8660    0.0000 S   0  0  0  0  0  0  0  0  0  0  0  0
    2.4086    1.3660    0.0000 O   0  0  0  0  0  0  0  0  0  0  0  0
    0.6766    0.3660    0.0000 O   0  0  0  0  0  0  0  0  0  0  0  0
    1.0426    1.7320    0.0000 O   0  0  0  0  0  0  0  0  0  0  0  0
    2.0426    0.0000    0.0000 O   0  0  0  0  0  0  0  0  0  0  0  0
    0.8644    4.3520    0.0000 N   0  0  0  0  0  0  0  0  0  0  0  0
    1.3644    5.8909    0.0000 N   0  0  0  0  0  0  0  0  0  0  0  0
    0.0554    4.9398    0.0000 N   0  0  0  0  0  0  0  0  0  0  0  0
    2.6245    4.6308    0.0000 N   0  0  0  0  0  0  0  0  0  0  0  0
    1.6734    4.9398    0.0000 C   0  0  0  0  0  0  0  0  0  0  0  0
    0.3644    5.8909    0.0000 C   0  0  0  0  0  0  0  0  0  0  0  0
    0.8644    3.7320    0.0000 H   0  0  0  0  0  0  0  0  0  0  0  0
    0.0000    6.3925    0.0000 H   0  0  0  0  0  0  0  0  0  0  0  0
    3.0852    5.0457    0.0000 H   0  0  0  0  0  0  0  0  0  0  0  0
    2.7534    4.0244    0.0000 H   0  0  0  0  0  0  0  0  0  0  0  0
    2.9456    1.0560    0.0000 H   0  0  0  0  0  0  0  0  0  0  0  0
    0.1397    0.6760    0.0000 H   0  0  0  0  0  0  0  0  0  0  0  0
  1  2  1  0  0  0  0
  1  3  1  0  0  0  0
  1  4  2  0  0  0  0
  1  5  2  0  0  0  0
  2 16  1  0  0  0  0
  3 17  1  0  0  0  0
  6  8  1  0  0  0  0
  6 10  1  0  0  0  0
  6 12  1  0  0  0  0
  7 10  2  0  0  0  0
  7 11  1  0  0  0  0
  8 11  2  0  0  0  0
  9 10  1  0  0  0  0
  9 14  1  0  0  0  0
  9 15  1  0  0  0  0
 11 13  1  0  0  0  0
M  END
> <PUBCHEM_COMPOUND_CID>
122363

> <PUBCHEM_COMPOUND_CANONICALIZED>
1

> <PUBCHEM_CACTVS_COMPLEXITY>
126

> <PUBCHEM_CACTVS_HBOND_ACCEPTOR>
7

> <PUBCHEM_CACTVS_HBOND_DONOR>
4

> <PUBCHEM_CACTVS_ROTATABLE_BOND>
0

> <PUBCHEM_CACTVS_SUBSKEYS>
AAADcYBDuABAAAAAAAAAAAAAAAAAAWAAAAAAAAAAAAAAAAABgAAAFAAYCAAAAAAAAAQFEAZrEIAiAAABJDAQAAuQgIAFYAAIAACACAAAAAAAAAAQAAAAAAAAAAAAAAAAAAAAAAAAAAAAAAAAAAAAAAAAAA==

> <PUBCHEM_IUPAC_OPENEYE_NAME>
sulfuric acid;1H-1,2,4-triazol-5-amine

> <PUBCHEM_IUPAC_CAS_NAME>
sulfuric acid;1H-1,2,4-triazol-5-amine

> <PUBCHEM_IUPAC_NAME_MARKUP>
sulfuric acid;1<I>H</I>-1,2,4-triazol-5-amine

> <PUBCHEM_IUPAC_NAME>
sulfuric acid;1H-1,2,4-triazol-5-amine

> <PUBCHEM_IUPAC_SYSTEMATIC_NAME>
sulfuric acid;1H-1,2,4-triazol-5-amine

> <PUBCHEM_IUPAC_TRADITIONAL_NAME>
sulfuric acid;1H-1,2,4-triazol-5-ylamine

> <PUBCHEM_IUPAC_INCHI>
InChI=1S/C2H4N4.H2O4S/c3-2-4-1-5-6-2;1-5(2,3)4/h1H,(H3,3,4,5,6);(H2,1,2,3,4)

> <PUBCHEM_IUPAC_INCHIKEY>
VPIXYGGTTLHXAS-UHFFFAOYSA-N

> <PUBCHEM_EXACT_MASS>
182.010976

> <PUBCHEM_MOLECULAR_FORMULA>
C2H6N4O4S

> <PUBCHEM_MOLECULAR_WEIGHT>
182.16

> <PUBCHEM_OPENEYE_CAN_SMILES>
C1=NNC(=N1)N.OS(=O)(=O)O

> <PUBCHEM_OPENEYE_ISO_SMILES>
C1=NNC(=N1)N.OS(=O)(=O)O

> <PUBCHEM_CACTVS_TPSA>
151

> <PUBCHEM_MONOISOTOPIC_WEIGHT>
182.010976

> <PUBCHEM_TOTAL_CHARGE>
0

> <PUBCHEM_HEAVY_ATOM_COUNT>
11

> <PUBCHEM_ATOM_DEF_STEREO_COUNT>
0

> <PUBCHEM_ATOM_UDEF_STEREO_COUNT>
0

> <PUBCHEM_BOND_DEF_STEREO_COUNT>
0

> <PUBCHEM_BOND_UDEF_STEREO_COUNT>
0

> <PUBCHEM_ISOTOPIC_ATOM_COUNT>
0

> <PUBCHEM_COMPONENT_COUNT>
2

> <PUBCHEM_CACTVS_TAUTO_COUNT>
-1

> <PUBCHEM_COORDINATE_TYPE>
1
5
255

> <PUBCHEM_BONDANNOTATIONS>
6  10  8
6  8  8
7  10  8
7  11  8
8  11  8

$$$$
