190938
  -OEChem-09172014312D

143151  0     1  0  0  0  0  0999 V2000
    7.0904    4.8469    0.0000 O   0  0  0  0  0  0  0  0  0  0  0  0
    5.0668    6.1356    0.0000 O   0  0  0  0  0  0  0  0  0  0  0  0
    7.7331   -1.7536    0.0000 O   0  0  0  0  0  0  0  0  0  0  0  0
    6.0010   -1.7536    0.0000 O   0  0  0  0  0  0  0  0  0  0  0  0
    7.7331   -3.7536    0.0000 O   0  0  0  0  0  0  0  0  0  0  0  0
    6.0010   -4.7536    0.0000 O   0  0  0  0  0  0  0  0  0  0  0  0
    4.2690   -3.7536    0.0000 O   0  0  0  0  0  0  0  0  0  0  0  0
    8.5991   -2.2536    0.0000 O   0  0  0  0  0  0  0  0  0  0  0  0
    4.2690   -4.7536    0.0000 O   0  0  0  0  0  0  0  0  0  0  0  0
    9.4651   -4.7536    0.0000 O   0  0  0  0  0  0  0  0  0  0  0  0
    6.0010   -6.7536    0.0000 O   0  0  0  0  0  0  0  0  0  0  0  0
   11.1972   -3.7536    0.0000 O   0  0  0  0  0  0  0  0  0  0  0  0
   11.1972   -1.7536    0.0000 O   0  0  0  0  0  0  0  0  0  0  0  0
    4.2690   -7.7536    0.0000 O   0  0  0  0  0  0  0  0  0  0  0  0
    2.5369   -6.7536    0.0000 O   0  0  0  0  0  0  0  0  0  0  0  0
   10.3312   -0.2536    0.0000 O   0  0  0  0  0  0  0  0  0  0  0  0
    2.5369   -3.7536    0.0000 O   0  0  0  0  0  0  0  0  0  0  0  0
    6.8066    4.1422    0.0000 C   0  0  2  0  0  0  0  0  0  0  0  0
    7.6706    4.6456    0.0000 C   0  0  3  0  0  0  0  0  0  0  0  0
    6.7945    3.1007    0.0000 C   0  0  1  0  0  0  0  0  0  0  0  0
    7.6668    5.6456    0.0000 C   0  0  1  0  0  0  0  0  0  0  0  0
    6.7988    6.1422    0.0000 C   0  0  3  0  0  0  0  0  0  0  0  0
    7.6946    2.5764    0.0000 C   0  0  1  0  0  0  0  0  0  0  0  0
    7.7071    1.4915    0.0000 C   0  0  2  0  0  0  0  0  0  0  0  0
    5.9386    4.6389    0.0000 C   0  0  0  0  0  0  0  0  0  0  0  0
    5.9348    5.6389    0.0000 C   0  0  2  0  0  0  0  0  0  0  0  0
    6.7696    0.9454    0.0000 C   0  0  1  0  0  0  0  0  0  0  0  0
    5.8446    2.5764    0.0000 C   0  0  0  0  0  0  0  0  0  0  0  0
    6.6878    5.5382    0.0000 C   0  0  0  0  0  0  0  0  0  0  0  0
    8.5748    6.1559    0.0000 C   0  0  0  0  0  0  0  0  0  0  0  0
    6.7788    7.1837    0.0000 C   0  0  0  0  0  0  0  0  0  0  0  0
    8.5826    4.1422    0.0000 C   0  0  0  0  0  0  0  0  0  0  0  0
    5.8321    1.4915    0.0000 C   0  0  0  0  0  0  0  0  0  0  0  0
    5.8224    3.9648    0.0000 C   0  0  0  0  0  0  0  0  0  0  0  0
    8.5946    3.1007    0.0000 C   0  0  0  0  0  0  0  0  0  0  0  0
    8.5788    7.1976    0.0000 C   0  0  0  0  0  0  0  0  0  0  0  0
    6.7565   -0.1847    0.0000 C   0  0  0  0  0  0  0  0  0  0  0  0
    5.8104    3.2781    0.0000 C   0  0  0  0  0  0  0  0  0  0  0  0
    8.6966    0.9454    0.0000 C   0  0  0  0  0  0  0  0  0  0  0  0
    7.6748    7.7149    0.0000 C   0  0  0  0  0  0  0  0  0  0  0  0
    8.5712    1.9948    0.0000 C   0  0  0  0  0  0  0  0  0  0  0  0
    7.7331   -0.7536    0.0000 C   0  0  2  0  0  0  0  0  0  0  0  0
    8.7096   -0.1847    0.0000 C   0  0  0  0  0  0  0  0  0  0  0  0
    9.0788    8.0636    0.0000 C   0  0  0  0  0  0  0  0  0  0  0  0
    9.5788    7.1976    0.0000 C   0  0  0  0  0  0  0  0  0  0  0  0
    5.7566   -0.1770    0.0000 C   0  0  0  0  0  0  0  0  0  0  0  0
    6.2499   -1.0469    0.0000 C   0  0  0  0  0  0  0  0  0  0  0  0
    6.8671   -2.2536    0.0000 C   0  0  2  0  0  0  0  0  0  0  0  0
    6.8671   -3.2536    0.0000 C   0  0  1  0  0  0  0  0  0  0  0  0
    6.0010   -3.7536    0.0000 C   0  0  2  0  0  0  0  0  0  0  0  0
    5.1350   -2.2536    0.0000 C   0  0  1  0  0  0  0  0  0  0  0  0
    5.1350   -3.2536    0.0000 C   0  0  2  0  0  0  0  0  0  0  0  0
    4.2690   -1.7536    0.0000 C   0  0  0  0  0  0  0  0  0  0  0  0
    8.5991   -3.2536    0.0000 C   0  0  2  0  0  0  0  0  0  0  0  0
    5.1350   -5.2536    0.0000 C   0  0  2  0  0  0  0  0  0  0  0  0
    9.4651   -3.7536    0.0000 C   0  0  1  0  0  0  0  0  0  0  0  0
    5.1350   -6.2536    0.0000 C   0  0  1  0  0  0  0  0  0  0  0  0
   10.3312   -3.2536    0.0000 C   0  0  2  0  0  0  0  0  0  0  0  0
    9.4651   -1.7536    0.0000 C   0  0  1  0  0  0  0  0  0  0  0  0
   10.3312   -2.2536    0.0000 C   0  0  1  0  0  0  0  0  0  0  0  0
    4.2690   -6.7536    0.0000 C   0  0  2  0  0  0  0  0  0  0  0  0
    3.4030   -5.2536    0.0000 C   0  0  1  0  0  0  0  0  0  0  0  0
    3.4030   -6.2536    0.0000 C   0  0  1  0  0  0  0  0  0  0  0  0
    9.4651   -0.7536    0.0000 C   0  0  0  0  0  0  0  0  0  0  0  0
    2.5369   -4.7536    0.0000 C   0  0  0  0  0  0  0  0  0  0  0  0
    8.4046    5.2234    0.0000 H   0  0  0  0  0  0  0  0  0  0  0  0
    8.4340    2.1571    0.0000 H   0  0  0  0  0  0  0  0  0  0  0  0
    5.3276    4.7442    0.0000 H   0  0  0  0  0  0  0  0  0  0  0  0
    5.7288    4.0555    0.0000 H   0  0  0  0  0  0  0  0  0  0  0  0
    5.9324    6.2589    0.0000 H   0  0  0  0  0  0  0  0  0  0  0  0
    6.0302    0.5261    0.0000 H   0  0  0  0  0  0  0  0  0  0  0  0
    5.6423    3.1625    0.0000 H   0  0  0  0  0  0  0  0  0  0  0  0
    5.2326    2.4774    0.0000 H   0  0  0  0  0  0  0  0  0  0  0  0
    6.1347    5.8185    0.0000 H   0  0  0  0  0  0  0  0  0  0  0  0
    6.2624    5.0872    0.0000 H   0  0  0  0  0  0  0  0  0  0  0  0
    8.7816    5.5714    0.0000 H   0  0  0  0  0  0  0  0  0  0  0  0
    9.1861    6.2597    0.0000 H   0  0  0  0  0  0  0  0  0  0  0  0
    6.5585    7.7632    0.0000 H   0  0  0  0  0  0  0  0  0  0  0  0
    6.1701    7.0658    0.0000 H   0  0  0  0  0  0  0  0  0  0  0  0
    9.1147    4.4605    0.0000 H   0  0  0  0  0  0  0  0  0  0  0  0
    5.2225    1.6046    0.0000 H   0  0  0  0  0  0  0  0  0  0  0  0
    5.6163    0.9102    0.0000 H   0  0  0  0  0  0  0  0  0  0  0  0
    5.7124    4.5750    0.0000 H   0  0  0  0  0  0  0  0  0  0  0  0
    5.2123    3.8548    0.0000 H   0  0  0  0  0  0  0  0  0  0  0  0
    5.9324    3.3547    0.0000 H   0  0  0  0  0  0  0  0  0  0  0  0
    9.1340    2.7948    0.0000 H   0  0  0  0  0  0  0  0  0  0  0  0
    5.9204    3.8883    0.0000 H   0  0  0  0  0  0  0  0  0  0  0  0
    5.2002    3.3882    0.0000 H   0  0  0  0  0  0  0  0  0  0  0  0
    5.7004    2.6680    0.0000 H   0  0  0  0  0  0  0  0  0  0  0  0
    9.3086    0.8463    0.0000 H   0  0  0  0  0  0  0  0  0  0  0  0
    8.8989    1.5314    0.0000 H   0  0  0  0  0  0  0  0  0  0  0  0
    8.0702    8.1924    0.0000 H   0  0  0  0  0  0  0  0  0  0  0  0
    7.2720    8.1862    0.0000 H   0  0  0  0  0  0  0  0  0  0  0  0
    8.8833    1.4591    0.0000 H   0  0  0  0  0  0  0  0  0  0  0  0
    9.1070    2.3069    0.0000 H   0  0  0  0  0  0  0  0  0  0  0  0
    8.2592    2.5306    0.0000 H   0  0  0  0  0  0  0  0  0  0  0  0
    7.1956   -1.0625    0.0000 H   0  0  0  0  0  0  0  0  0  0  0  0
    8.9254   -0.7660    0.0000 H   0  0  0  0  0  0  0  0  0  0  0  0
    9.3192   -0.0716    0.0000 H   0  0  0  0  0  0  0  0  0  0  0  0
    4.5311    5.8235    0.0000 H   0  0  0  0  0  0  0  0  0  0  0  0
    9.6158    7.7536    0.0000 H   0  0  0  0  0  0  0  0  0  0  0  0
    9.3888    8.6005    0.0000 H   0  0  0  0  0  0  0  0  0  0  0  0
    8.5419    8.3736    0.0000 H   0  0  0  0  0  0  0  0  0  0  0  0
    9.5788    6.5776    0.0000 H   0  0  0  0  0  0  0  0  0  0  0  0
   10.1989    7.1976    0.0000 H   0  0  0  0  0  0  0  0  0  0  0  0
    9.5788    7.8176    0.0000 H   0  0  0  0  0  0  0  0  0  0  0  0
    5.7613    0.4430    0.0000 H   0  0  0  0  0  0  0  0  0  0  0  0
    5.1366   -0.1722    0.0000 H   0  0  0  0  0  0  0  0  0  0  0  0
    5.7518   -0.7970    0.0000 H   0  0  0  0  0  0  0  0  0  0  0  0
    5.7153   -0.7327    0.0000 H   0  0  0  0  0  0  0  0  0  0  0  0
    5.9357   -1.5814    0.0000 H   0  0  0  0  0  0  0  0  0  0  0  0
    6.7844   -1.3610    0.0000 H   0  0  0  0  0  0  0  0  0  0  0  0
    7.4040   -2.5636    0.0000 H   0  0  0  0  0  0  0  0  0  0  0  0
    6.8671   -3.8736    0.0000 H   0  0  0  0  0  0  0  0  0  0  0  0
    5.4641   -4.0636    0.0000 H   0  0  0  0  0  0  0  0  0  0  0  0
    5.1350   -1.6336    0.0000 H   0  0  0  0  0  0  0  0  0  0  0  0
    4.5981   -2.9436    0.0000 H   0  0  0  0  0  0  0  0  0  0  0  0
    4.5790   -1.2166    0.0000 H   0  0  0  0  0  0  0  0  0  0  0  0
    3.7320   -1.4436    0.0000 H   0  0  0  0  0  0  0  0  0  0  0  0
    3.9590   -2.2905    0.0000 H   0  0  0  0  0  0  0  0  0  0  0  0
    8.5991   -3.8736    0.0000 H   0  0  0  0  0  0  0  0  0  0  0  0
    3.7320   -3.4436    0.0000 H   0  0  0  0  0  0  0  0  0  0  0  0
    5.1350   -4.6336    0.0000 H   0  0  0  0  0  0  0  0  0  0  0  0
   10.0021   -4.0636    0.0000 H   0  0  0  0  0  0  0  0  0  0  0  0
    5.1350   -6.8736    0.0000 H   0  0  0  0  0  0  0  0  0  0  0  0
   10.8681   -2.9436    0.0000 H   0  0  0  0  0  0  0  0  0  0  0  0
    8.9282   -1.4436    0.0000 H   0  0  0  0  0  0  0  0  0  0  0  0
   10.8681   -2.5636    0.0000 H   0  0  0  0  0  0  0  0  0  0  0  0
    3.7320   -7.0636    0.0000 H   0  0  0  0  0  0  0  0  0  0  0  0
    3.4030   -4.6336    0.0000 H   0  0  0  0  0  0  0  0  0  0  0  0
   10.0021   -5.0636    0.0000 H   0  0  0  0  0  0  0  0  0  0  0  0
    3.4030   -6.8736    0.0000 H   0  0  0  0  0  0  0  0  0  0  0  0
    9.2531   -0.1710    0.0000 H   0  0  0  0  0  0  0  0  0  0  0  0
    8.8546   -0.8612    0.0000 H   0  0  0  0  0  0  0  0  0  0  0  0
    6.0010   -7.3736    0.0000 H   0  0  0  0  0  0  0  0  0  0  0  0
   11.7341   -3.4436    0.0000 H   0  0  0  0  0  0  0  0  0  0  0  0
   11.1972   -1.1336    0.0000 H   0  0  0  0  0  0  0  0  0  0  0  0
    1.9264   -4.6459    0.0000 H   0  0  0  0  0  0  0  0  0  0  0  0
    2.3249   -5.3362    0.0000 H   0  0  0  0  0  0  0  0  0  0  0  0
    3.7320   -8.0636    0.0000 H   0  0  0  0  0  0  0  0  0  0  0  0
    2.0000   -6.4436    0.0000 H   0  0  0  0  0  0  0  0  0  0  0  0
   10.3312    0.3664    0.0000 H   0  0  0  0  0  0  0  0  0  0  0  0
    2.0000   -3.4436    0.0000 H   0  0  0  0  0  0  0  0  0  0  0  0
  1 19  1  0  0  0  0
  1 29  1  0  0  0  0
 26  2  1  6  0  0  0
  2100  1  0  0  0  0
 42  3  1  6  0  0  0
 48  3  1  1  0  0  0
  4 48  1  0  0  0  0
  4 51  1  0  0  0  0
 49  5  1  6  0  0  0
 54  5  1  6  0  0  0
 50  6  1  1  0  0  0
 55  6  1  1  0  0  0
 52  7  1  1  0  0  0
  7122  1  0  0  0  0
  8 54  1  0  0  0  0
  8 59  1  0  0  0  0
  9 55  1  0  0  0  0
  9 62  1  0  0  0  0
 56 10  1  1  0  0  0
 10131  1  0  0  0  0
 57 11  1  6  0  0  0
 11135  1  0  0  0  0
 58 12  1  6  0  0  0
 12136  1  0  0  0  0
 60 13  1  1  0  0  0
 13137  1  0  0  0  0
 61 14  1  1  0  0  0
 14140  1  0  0  0  0
 63 15  1  6  0  0  0
 15141  1  0  0  0  0
 16 64  1  0  0  0  0
 16142  1  0  0  0  0
 17 65  1  0  0  0  0
 17143  1  0  0  0  0
 18 19  1  0  0  0  0
 18 20  1  0  0  0  0
 18 25  1  0  0  0  0
 18 34  1  1  0  0  0
 19 21  1  0  0  0  0
 19 32  1  0  0  0  0
 20 23  1  0  0  0  0
 20 28  1  0  0  0  0
 20 38  1  6  0  0  0
 21 22  1  0  0  0  0
 21 30  1  0  0  0  0
 21 66  1  6  0  0  0
 22 26  1  0  0  0  0
 22 29  1  0  0  0  0
 22 31  1  0  0  0  0
 23 24  1  0  0  0  0
 23 35  1  0  0  0  0
 23 67  1  1  0  0  0
 24 27  1  0  0  0  0
 24 39  1  0  0  0  0
 24 41  1  6  0  0  0
 25 26  1  0  0  0  0
 25 68  1  0  0  0  0
 25 69  1  0  0  0  0
 26 70  1  0  0  0  0
 27 33  1  0  0  0  0
 27 37  1  0  0  0  0
 27 71  1  1  0  0  0
 28 33  1  0  0  0  0
 28 72  1  0  0  0  0
 28 73  1  0  0  0  0
 29 74  1  0  0  0  0
 29 75  1  0  0  0  0
 30 36  1  0  0  0  0
 30 76  1  0  0  0  0
 30 77  1  0  0  0  0
 31 40  1  0  0  0  0
 31 78  1  0  0  0  0
 31 79  1  0  0  0  0
 32 35  2  0  0  0  0
 32 80  1  0  0  0  0
 33 81  1  0  0  0  0
 33 82  1  0  0  0  0
 34 83  1  0  0  0  0
 34 84  1  0  0  0  0
 34 85  1  0  0  0  0
 35 86  1  0  0  0  0
 36 40  1  0  0  0  0
 36 44  1  0  0  0  0
 36 45  1  0  0  0  0
 37 42  1  0  0  0  0
 37 46  1  0  0  0  0
 37 47  1  0  0  0  0
 38 87  1  0  0  0  0
 38 88  1  0  0  0  0
 38 89  1  0  0  0  0
 39 43  1  0  0  0  0
 39 90  1  0  0  0  0
 39 91  1  0  0  0  0
 40 92  1  0  0  0  0
 40 93  1  0  0  0  0
 41 94  1  0  0  0  0
 41 95  1  0  0  0  0
 41 96  1  0  0  0  0
 42 43  1  0  0  0  0
 42 97  1  0  0  0  0
 43 98  1  0  0  0  0
 43 99  1  0  0  0  0
 44101  1  0  0  0  0
 44102  1  0  0  0  0
 44103  1  0  0  0  0
 45104  1  0  0  0  0
 45105  1  0  0  0  0
 45106  1  0  0  0  0
 46107  1  0  0  0  0
 46108  1  0  0  0  0
 46109  1  0  0  0  0
 47110  1  0  0  0  0
 47111  1  0  0  0  0
 47112  1  0  0  0  0
 48 49  1  0  0  0  0
 48113  1  0  0  0  0
 49 50  1  0  0  0  0
 49114  1  0  0  0  0
 50 52  1  0  0  0  0
 50115  1  0  0  0  0
 51 52  1  0  0  0  0
 51 53  1  1  0  0  0
 51116  1  0  0  0  0
 52117  1  0  0  0  0
 53118  1  0  0  0  0
 53119  1  0  0  0  0
 53120  1  0  0  0  0
 54 56  1  0  0  0  0
 54121  1  0  0  0  0
 55 57  1  0  0  0  0
 55123  1  0  0  0  0
 56 58  1  0  0  0  0
 56124  1  0  0  0  0
 57 61  1  0  0  0  0
 57125  1  0  0  0  0
 58 60  1  0  0  0  0
 58126  1  0  0  0  0
 59 60  1  0  0  0  0
 59 64  1  6  0  0  0
 59127  1  0  0  0  0
 60128  1  0  0  0  0
 61 63  1  0  0  0  0
 61129  1  0  0  0  0
 62 63  1  0  0  0  0
 62 65  1  1  0  0  0
 62130  1  0  0  0  0
 63132  1  0  0  0  0
 64133  1  0  0  0  0
 64134  1  0  0  0  0
 65138  1  0  0  0  0
 65139  1  0  0  0  0
M  END
> <PUBCHEM_COMPOUND_CID>
190938

> <PUBCHEM_COMPOUND_CANONICALIZED>
1

> <PUBCHEM_CACTVS_COMPLEXITY>
1780

> <PUBCHEM_CACTVS_HBOND_ACCEPTOR>
17

> <PUBCHEM_CACTVS_HBOND_DONOR>
10

> <PUBCHEM_CACTVS_ROTATABLE_BOND>
8

> <PUBCHEM_CACTVS_SUBSKEYS>
AAADcfB8PgAAAAAAAAAAAAAAAAAAASAAAAA0aNGCBIAAAEjAAAAAGgAACAAAD1SwgAMCCAAABgCAACBCAAAAAAAgAAAICAAAAAgRFAIAIQAiUAAFgAAPIAPA4PwPgAAAAAAAAADCAAYAADAAAAAAAAAAAA==

> <PUBCHEM_IUPAC_OPENEYE_NAME>
(2S,3R,4S,5S,6R)-2-[(2R,3R,4S,5S,6R)-5-hydroxy-2-[[(2S,4S,5R,8R,10S,13S,14R,18R)-2-hydroxy-4,5,9,9,13,20,20-heptamethyl-24-oxahexacyclo[15.5.2.01,18.04,17.05,14.08,13]tetracos-15-en-10-yl]oxy]-6-methyl-3-[(2S,3R,4S,5S,6R)-3,4,5-trihydroxy-6-(hydroxymethyl)tetrahydropyran-2-yl]oxy-tetrahydropyran-4-yl]oxy-6-(hydroxymethyl)tetrahydropyran-3,4,5-triol

> <PUBCHEM_IUPAC_CAS_NAME>
(2S,3R,4S,5S,6R)-2-[[(2R,3R,4S,5S,6R)-5-hydroxy-2-[[(2S,4S,5R,8R,10S,13S,14R,18R)-2-hydroxy-4,5,9,9,13,20,20-heptamethyl-24-oxahexacyclo[15.5.2.01,18.04,17.05,14.08,13]tetracos-15-en-10-yl]oxy]-6-methyl-3-[[(2S,3R,4S,5S,6R)-3,4,5-trihydroxy-6-(hydroxymethyl)-2-oxanyl]oxy]-4-oxanyl]oxy]-6-(hydroxymethyl)oxane-3,4,5-triol

> <PUBCHEM_IUPAC_NAME_MARKUP>
(2<I>S</I>,3<I>R</I>,4<I>S</I>,5<I>S</I>,6<I>R</I>)-2-[(2<I>R</I>,3<I>R</I>,4<I>S</I>,5<I>S</I>,6<I>R</I>)-5-hydroxy-2-[[(2<I>S</I>,4<I>S</I>,5<I>R</I>,8<I>R</I>,10<I>S</I>,13<I>S</I>,14<I>R</I>,18<I>R</I>)-2-hydroxy-4,5,9,9,13,20,20-heptamethyl-24-oxahexacyclo[15.5.2.0<SUP>1,18</SUP>.0<SUP>4,17</SUP>.0<SUP>5,14</SUP>.0<SUP>8,13</SUP>]tetracos-15-en-10-yl]oxy]-6-methyl-3-[(2<I>S</I>,3<I>R</I>,4<I>S</I>,5<I>S</I>,6<I>R</I>)-3,4,5-trihydroxy-6-(hydroxymethyl)oxan-2-yl]oxyoxan-4-yl]oxy-6-(hydroxymethyl)oxane-3,4,5-triol

> <PUBCHEM_IUPAC_NAME>
(2S,3R,4S,5S,6R)-2-[(2R,3R,4S,5S,6R)-5-hydroxy-2-[[(2S,4S,5R,8R,10S,13S,14R,18R)-2-hydroxy-4,5,9,9,13,20,20-heptamethyl-24-oxahexacyclo[15.5.2.01,18.04,17.05,14.08,13]tetracos-15-en-10-yl]oxy]-6-methyl-3-[(2S,3R,4S,5S,6R)-3,4,5-trihydroxy-6-(hydroxymethyl)oxan-2-yl]oxyoxan-4-yl]oxy-6-(hydroxymethyl)oxane-3,4,5-triol

> <PUBCHEM_IUPAC_SYSTEMATIC_NAME>
(2S,3R,4S,5S,6R)-2-[(2R,3R,4S,5S,6R)-2-[[(2S,4S,5R,8R,10S,13S,14R,18R)-4,5,9,9,13,20,20-heptamethyl-2-oxidanyl-24-oxahexacyclo[15.5.2.01,18.04,17.05,14.08,13]tetracos-15-en-10-yl]oxy]-3-[(2S,3R,4S,5S,6R)-6-(hydroxymethyl)-3,4,5-tris(oxidanyl)oxan-2-yl]oxy-6-methyl-5-oxidanyl-oxan-4-yl]oxy-6-(hydroxymethyl)oxane-3,4,5-triol

> <PUBCHEM_IUPAC_TRADITIONAL_NAME>
(2S,3R,4S,5S,6R)-2-[(2R,3R,4S,5S,6R)-5-hydroxy-2-[[(2S,4S,5R,8R,10S,13S,14R,18R)-2-hydroxy-4,5,9,9,13,20,20-heptamethyl-24-oxahexacyclo[15.5.2.01,18.04,17.05,14.08,13]tetracos-15-en-10-yl]oxy]-6-methyl-3-[(2S,3R,4S,5S,6R)-3,4,5-trihydroxy-6-methylol-tetrahydropyran-2-yl]oxy-tetrahydropyran-4-yl]oxy-6-methylol-tetrahydropyran-3,4,5-triol

> <PUBCHEM_IUPAC_INCHI>
InChI=1S/C48H78O17/c1-22-30(52)37(64-39-35(57)33(55)31(53)23(19-49)61-39)38(65-40-36(58)34(56)32(54)24(20-50)62-40)41(60-22)63-29-11-12-44(6)25(43(29,4)5)9-13-45(7)26(44)10-14-48-27-17-42(2,3)15-16-47(27,21-59-48)28(51)18-46(45,48)8/h10,14,22-41,49-58H,9,11-13,15-21H2,1-8H3/t22-,23-,24-,25+,26-,27-,28+,29+,30+,31-,32-,33+,34+,35-,36-,37+,38-,39+,40+,41+,44+,45-,46+,47?,48?/m1/s1

> <PUBCHEM_IUPAC_INCHIKEY>
UKBCURZIYXTEHQ-OPWJELMASA-N

> <PUBCHEM_XLOGP3_AA>
2.1

> <PUBCHEM_EXACT_MASS>
926.523901

> <PUBCHEM_MOLECULAR_FORMULA>
C48H78O17

> <PUBCHEM_MOLECULAR_WEIGHT>
927.1

> <PUBCHEM_OPENEYE_CAN_SMILES>
CC1C(C(C(C(O1)OC2CCC3(C(C2(C)C)CCC4(C3C=CC56C4(CC(C7(C5CC(CC7)(C)C)CO6)O)C)C)C)OC8C(C(C(C(O8)CO)O)O)O)OC9C(C(C(C(O9)CO)O)O)O)O

> <PUBCHEM_OPENEYE_ISO_SMILES>
C[C@@H]1[C@@H]([C@@H]([C@H]([C@@H](O1)O[C@H]2CC[C@]3([C@H](C2(C)C)CC[C@@]4([C@@H]3C=CC56[C@]4(C[C@@H](C7([C@H]5CC(CC7)(C)C)CO6)O)C)C)C)O[C@H]8[C@@H]([C@H]([C@@H]([C@H](O8)CO)O)O)O)O[C@H]9[C@@H]([C@H]([C@@H]([C@H](O9)CO)O)O)O)O

> <PUBCHEM_CACTVS_TPSA>
267

> <PUBCHEM_MONOISOTOPIC_WEIGHT>
926.523901

> <PUBCHEM_TOTAL_CHARGE>
0

> <PUBCHEM_HEAVY_ATOM_COUNT>
65

> <PUBCHEM_ATOM_DEF_STEREO_COUNT>
23

> <PUBCHEM_ATOM_UDEF_STEREO_COUNT>
2

> <PUBCHEM_BOND_DEF_STEREO_COUNT>
0

> <PUBCHEM_BOND_UDEF_STEREO_COUNT>
0

> <PUBCHEM_ISOTOPIC_ATOM_COUNT>
0

> <PUBCHEM_COMPONENT_COUNT>
1

> <PUBCHEM_CACTVS_TAUTO_COUNT>
-1

> <PUBCHEM_COORDINATE_TYPE>
1
5
255

> <PUBCHEM_BONDANNOTATIONS>
56  10  5
57  11  6
58  12  6
60  13  5
61  14  5
63  15  6
18  34  5
19  32  3
26  2  6
20  38  6
21  66  6
22  31  3
23  67  5
24  41  6
27  71  5
42  3  6
48  3  5
49  5  6
54  5  6
51  53  5
59  64  6
50  6  5
55  6  5
62  65  5
52  7  5

$$$$
