100962153
  -OEChem-09172016132D

144151  0     1  0  0  0  0  0999 V2000
    9.4651   -1.0000    0.0000 O   0  0  0  0  0  0  0  0  0  0  0  0
   17.5164    0.5592    0.0000 O   0  0  0  0  0  0  0  0  0  0  0  0
   11.2862   -2.7709    0.0000 O   0  0  0  0  0  0  0  0  0  0  0  0
   18.3783    2.1209    0.0000 O   0  0  0  0  0  0  0  0  0  0  0  0
    7.7331   -1.0000    0.0000 O   0  0  0  0  0  0  0  0  0  0  0  0
    9.4651    1.0000    0.0000 O   0  0  0  0  0  0  0  0  0  0  0  0
    7.7331    2.0000    0.0000 O   0  0  0  0  0  0  0  0  0  0  0  0
    6.0010    1.0000    0.0000 O   0  0  0  0  0  0  0  0  0  0  0  0
    6.0010   -2.0000    0.0000 O   0  0  0  0  0  0  0  0  0  0  0  0
    6.8671    2.5000    0.0000 O   0  0  0  0  0  0  0  0  0  0  0  0
    4.2690   -2.0000    0.0000 O   0  0  0  0  0  0  0  0  0  0  0  0
    4.2690    2.0000    0.0000 O   0  0  0  0  0  0  0  0  0  0  0  0
    4.2690    4.0000    0.0000 O   0  0  0  0  0  0  0  0  0  0  0  0
    6.0010    5.0000    0.0000 O   0  0  0  0  0  0  0  0  0  0  0  0
    6.0010   -4.0000    0.0000 O   0  0  0  0  0  0  0  0  0  0  0  0
    4.2690   -5.0000    0.0000 O   0  0  0  0  0  0  0  0  0  0  0  0
    2.5369   -4.0000    0.0000 O   0  0  0  0  0  0  0  0  0  0  0  0
    2.5369   -1.0000    0.0000 O   0  0  0  0  0  0  0  0  0  0  0  0
   13.9862    0.5698    0.0000 C   0  0  2  0  0  0  0  0  0  0  0  0
   12.2102    0.5561    0.0000 C   0  0  2  0  0  0  0  0  0  0  0  0
   13.1182    1.0664    0.0000 C   0  0  1  0  0  0  0  0  0  0  0  0
   12.2062   -0.4855    0.0000 C   0  0  2  0  0  0  0  0  0  0  0  0
   14.8503    1.0731    0.0000 C   0  0  1  0  0  0  0  0  0  0  0  0
   14.0063   -0.4717    0.0000 C   0  0  0  0  0  0  0  0  0  0  0  0
   11.2729   -1.0389    0.0000 C   0  0  1  0  0  0  0  0  0  0  0  0
   13.1103   -1.0029    0.0000 C   0  0  0  0  0  0  0  0  0  0  0  0
   11.2812    1.1166    0.0000 C   0  0  0  0  0  0  0  0  0  0  0  0
   14.8464    2.0731    0.0000 C   0  0  0  0  0  0  0  0  0  0  0  0
   15.7463    0.5419    0.0000 C   0  0  0  0  0  0  0  0  0  0  0  0
   10.3312   -0.5000    0.0000 C   0  0  2  0  0  0  0  0  0  0  0  0
   16.6463    2.1008    0.0000 C   0  0  1  0  0  0  0  0  0  0  0  0
   10.3353    0.5850    0.0000 C   0  0  0  0  0  0  0  0  0  0  0  0
   14.6319   -0.1938    0.0000 C   0  0  0  0  0  0  0  0  0  0  0  0
   13.1144    2.0664    0.0000 C   0  0  0  0  0  0  0  0  0  0  0  0
   12.2140    1.5561    0.0000 C   0  0  0  0  0  0  0  0  0  0  0  0
   15.7383    2.6112    0.0000 C   0  0  0  0  0  0  0  0  0  0  0  0
   16.6503    1.0592    0.0000 C   0  0  1  0  0  0  0  0  0  0  0  0
   15.1959    0.1347    0.0000 C   0  0  0  0  0  0  0  0  0  0  0  0
   13.9785    2.5698    0.0000 C   0  0  0  0  0  0  0  0  0  0  0  0
   11.7795   -1.9010    0.0000 C   0  0  0  0  0  0  0  0  0  0  0  0
   10.7796   -1.9087    0.0000 C   0  0  0  0  0  0  0  0  0  0  0  0
   17.5881    2.6397    0.0000 C   0  0  0  0  0  0  0  0  0  0  0  0
   15.7090    3.6958    0.0000 C   0  0  0  0  0  0  0  0  0  0  0  0
   16.6380    4.2563    0.0000 C   0  0  0  0  0  0  0  0  0  0  0  0
   17.5839    3.7247    0.0000 C   0  0  0  0  0  0  0  0  0  0  0  0
   17.5181    1.6109    0.0000 C   0  0  0  0  0  0  0  0  0  0  0  0
   17.1246    5.1299    0.0000 C   0  0  0  0  0  0  0  0  0  0  0  0
   16.1247    5.1145    0.0000 C   0  0  0  0  0  0  0  0  0  0  0  0
    8.5991   -0.5000    0.0000 C   0  0  2  0  0  0  0  0  0  0  0  0
    8.5991    0.5000    0.0000 C   0  0  1  0  0  0  0  0  0  0  0  0
    7.7331    1.0000    0.0000 C   0  0  2  0  0  0  0  0  0  0  0  0
    6.8671   -0.5000    0.0000 C   0  0  1  0  0  0  0  0  0  0  0  0
    6.8671    0.5000    0.0000 C   0  0  1  0  0  0  0  0  0  0  0  0
    6.0010   -1.0000    0.0000 C   0  0  0  0  0  0  0  0  0  0  0  0
    6.0010    2.0000    0.0000 C   0  0  2  0  0  0  0  0  0  0  0  0
    5.1350    2.5000    0.0000 C   0  0  1  0  0  0  0  0  0  0  0  0
    5.1350   -2.5000    0.0000 C   0  0  2  0  0  0  0  0  0  0  0  0
    5.1350    3.5000    0.0000 C   0  0  1  0  0  0  0  0  0  0  0  0
    6.8671    3.5000    0.0000 C   0  0  2  0  0  0  0  0  0  0  0  0
    6.0010    4.0000    0.0000 C   0  0  2  0  0  0  0  0  0  0  0  0
    5.1350   -3.5000    0.0000 C   0  0  1  0  0  0  0  0  0  0  0  0
    4.2690   -4.0000    0.0000 C   0  0  2  0  0  0  0  0  0  0  0  0
    3.4030   -2.5000    0.0000 C   0  0  1  0  0  0  0  0  0  0  0  0
    3.4030   -3.5000    0.0000 C   0  0  1  0  0  0  0  0  0  0  0  0
    7.7331    4.0000    0.0000 C   0  0  0  0  0  0  0  0  0  0  0  0
    2.5369   -2.0000    0.0000 C   0  0  0  0  0  0  0  0  0  0  0  0
   13.8527    1.4943    0.0000 H   0  0  0  0  0  0  0  0  0  0  0  0
   12.2127   -1.3355    0.0000 H   0  0  0  0  0  0  0  0  0  0  0  0
   14.2265   -1.0512    0.0000 H   0  0  0  0  0  0  0  0  0  0  0  0
   14.6150   -0.3538    0.0000 H   0  0  0  0  0  0  0  0  0  0  0  0
   12.7148   -1.4804    0.0000 H   0  0  0  0  0  0  0  0  0  0  0  0
   13.5130   -1.4742    0.0000 H   0  0  0  0  0  0  0  0  0  0  0  0
   11.6876    1.5848    0.0000 H   0  0  0  0  0  0  0  0  0  0  0  0
   10.8894    1.5971    0.0000 H   0  0  0  0  0  0  0  0  0  0  0  0
   15.3435    0.0705    0.0000 H   0  0  0  0  0  0  0  0  0  0  0  0
   16.1417    0.0644    0.0000 H   0  0  0  0  0  0  0  0  0  0  0  0
    9.7948   -0.1890    0.0000 H   0  0  0  0  0  0  0  0  0  0  0  0
   10.1285    1.1695    0.0000 H   0  0  0  0  0  0  0  0  0  0  0  0
    9.7241    0.4812    0.0000 H   0  0  0  0  0  0  0  0  0  0  0  0
   14.1585   -0.5941    0.0000 H   0  0  0  0  0  0  0  0  0  0  0  0
   15.0323   -0.6672    0.0000 H   0  0  0  0  0  0  0  0  0  0  0  0
   15.1053    0.2066    0.0000 H   0  0  0  0  0  0  0  0  0  0  0  0
   12.5763    2.3744    0.0000 H   0  0  0  0  0  0  0  0  0  0  0  0
   12.8340    1.5537    0.0000 H   0  0  0  0  0  0  0  0  0  0  0  0
   12.2164    2.1761    0.0000 H   0  0  0  0  0  0  0  0  0  0  0  0
   11.5941    1.5585    0.0000 H   0  0  0  0  0  0  0  0  0  0  0  0
   16.6492    0.4392    0.0000 H   0  0  0  0  0  0  0  0  0  0  0  0
   14.6141   -0.0796    0.0000 H   0  0  0  0  0  0  0  0  0  0  0  0
   15.4102   -0.4471    0.0000 H   0  0  0  0  0  0  0  0  0  0  0  0
   15.7777    0.3490    0.0000 H   0  0  0  0  0  0  0  0  0  0  0  0
   13.9761    3.1898    0.0000 H   0  0  0  0  0  0  0  0  0  0  0  0
   12.2575   -2.2959    0.0000 H   0  0  0  0  0  0  0  0  0  0  0  0
   12.2514   -1.4988    0.0000 H   0  0  0  0  0  0  0  0  0  0  0  0
   10.2403   -1.6029    0.0000 H   0  0  0  0  0  0  0  0  0  0  0  0
   10.4737   -2.4480    0.0000 H   0  0  0  0  0  0  0  0  0  0  0  0
   11.3189   -2.2146    0.0000 H   0  0  0  0  0  0  0  0  0  0  0  0
   17.7994    2.0568    0.0000 H   0  0  0  0  0  0  0  0  0  0  0  0
   18.1985    2.7482    0.0000 H   0  0  0  0  0  0  0  0  0  0  0  0
   15.4843    4.2736    0.0000 H   0  0  0  0  0  0  0  0  0  0  0  0
   15.1012    3.5733    0.0000 H   0  0  0  0  0  0  0  0  0  0  0  0
   18.1951    3.6210    0.0000 H   0  0  0  0  0  0  0  0  0  0  0  0
   17.7907    4.3092    0.0000 H   0  0  0  0  0  0  0  0  0  0  0  0
   17.1251    1.1314    0.0000 H   0  0  0  0  0  0  0  0  0  0  0  0
   17.9221    1.1406    0.0000 H   0  0  0  0  0  0  0  0  0  0  0  0
   17.5164   -0.0608    0.0000 H   0  0  0  0  0  0  0  0  0  0  0  0
   17.6663    4.8282    0.0000 H   0  0  0  0  0  0  0  0  0  0  0  0
   17.4263    5.6716    0.0000 H   0  0  0  0  0  0  0  0  0  0  0  0
   16.5830    5.4316    0.0000 H   0  0  0  0  0  0  0  0  0  0  0  0
   16.6568    5.4328    0.0000 H   0  0  0  0  0  0  0  0  0  0  0  0
   15.8065    5.6466    0.0000 H   0  0  0  0  0  0  0  0  0  0  0  0
   15.5926    4.7963    0.0000 H   0  0  0  0  0  0  0  0  0  0  0  0
    8.5991   -1.1200    0.0000 H   0  0  0  0  0  0  0  0  0  0  0  0
   11.6004   -3.3054    0.0000 H   0  0  0  0  0  0  0  0  0  0  0  0
   18.9188    1.8171    0.0000 H   0  0  0  0  0  0  0  0  0  0  0  0
    8.5991    1.1200    0.0000 H   0  0  0  0  0  0  0  0  0  0  0  0
    7.1962    1.3100    0.0000 H   0  0  0  0  0  0  0  0  0  0  0  0
    6.8671   -1.1200    0.0000 H   0  0  0  0  0  0  0  0  0  0  0  0
    6.3301    0.1900    0.0000 H   0  0  0  0  0  0  0  0  0  0  0  0
    9.4651    1.6200    0.0000 H   0  0  0  0  0  0  0  0  0  0  0  0
    5.7890   -0.4174    0.0000 H   0  0  0  0  0  0  0  0  0  0  0  0
    5.3905   -1.1077    0.0000 H   0  0  0  0  0  0  0  0  0  0  0  0
    8.2700    2.3100    0.0000 H   0  0  0  0  0  0  0  0  0  0  0  0
    5.4641    1.6900    0.0000 H   0  0  0  0  0  0  0  0  0  0  0  0
    4.5981    2.8100    0.0000 H   0  0  0  0  0  0  0  0  0  0  0  0
    5.1350   -1.8800    0.0000 H   0  0  0  0  0  0  0  0  0  0  0  0
    5.1350    4.1200    0.0000 H   0  0  0  0  0  0  0  0  0  0  0  0
    7.4040    3.1900    0.0000 H   0  0  0  0  0  0  0  0  0  0  0  0
    6.5380    4.3100    0.0000 H   0  0  0  0  0  0  0  0  0  0  0  0
    5.1350   -4.1200    0.0000 H   0  0  0  0  0  0  0  0  0  0  0  0
    3.7320   -4.3100    0.0000 H   0  0  0  0  0  0  0  0  0  0  0  0
    3.7320    2.3100    0.0000 H   0  0  0  0  0  0  0  0  0  0  0  0
    3.4030   -1.8800    0.0000 H   0  0  0  0  0  0  0  0  0  0  0  0
    3.4030   -4.1200    0.0000 H   0  0  0  0  0  0  0  0  0  0  0  0
    8.0431    3.4631    0.0000 H   0  0  0  0  0  0  0  0  0  0  0  0
    8.2700    4.3100    0.0000 H   0  0  0  0  0  0  0  0  0  0  0  0
    7.4231    4.5369    0.0000 H   0  0  0  0  0  0  0  0  0  0  0  0
    4.2690    4.6200    0.0000 H   0  0  0  0  0  0  0  0  0  0  0  0
    6.5380    5.3100    0.0000 H   0  0  0  0  0  0  0  0  0  0  0  0
    6.5380   -3.6900    0.0000 H   0  0  0  0  0  0  0  0  0  0  0  0
    1.9264   -1.8923    0.0000 H   0  0  0  0  0  0  0  0  0  0  0  0
    2.3249   -2.5826    0.0000 H   0  0  0  0  0  0  0  0  0  0  0  0
    3.7320   -5.3100    0.0000 H   0  0  0  0  0  0  0  0  0  0  0  0
    2.0000   -3.6900    0.0000 H   0  0  0  0  0  0  0  0  0  0  0  0
    2.0000   -0.6900    0.0000 H   0  0  0  0  0  0  0  0  0  0  0  0
 30  1  1  1  0  0  0
 49  1  1  6  0  0  0
 37  2  1  1  0  0  0
  2105  1  0  0  0  0
  3 40  1  0  0  0  0
  3113  1  0  0  0  0
  4 46  1  0  0  0  0
  4114  1  0  0  0  0
  5 49  1  0  0  0  0
  5 52  1  0  0  0  0
 50  6  1  1  0  0  0
  6119  1  0  0  0  0
 51  7  1  6  0  0  0
  7122  1  0  0  0  0
 53  8  1  1  0  0  0
 55  8  1  1  0  0  0
  9 54  1  0  0  0  0
 57  9  1  1  0  0  0
 10 55  1  0  0  0  0
 10 59  1  0  0  0  0
 11 57  1  0  0  0  0
 11 63  1  0  0  0  0
 56 12  1  6  0  0  0
 12131  1  0  0  0  0
 58 13  1  6  0  0  0
 13137  1  0  0  0  0
 60 14  1  1  0  0  0
 14138  1  0  0  0  0
 61 15  1  6  0  0  0
 15139  1  0  0  0  0
 62 16  1  1  0  0  0
 16142  1  0  0  0  0
 64 17  1  6  0  0  0
 17143  1  0  0  0  0
 18 66  1  0  0  0  0
 18144  1  0  0  0  0
 19 21  1  0  0  0  0
 19 23  1  0  0  0  0
 19 24  1  0  0  0  0
 19 33  1  1  0  0  0
 20 21  1  0  0  0  0
 20 22  1  0  0  0  0
 20 27  1  0  0  0  0
 20 35  1  1  0  0  0
 21 34  1  0  0  0  0
 21 67  1  6  0  0  0
 22 25  1  0  0  0  0
 22 26  1  0  0  0  0
 22 68  1  6  0  0  0
 23 28  1  0  0  0  0
 23 29  1  0  0  0  0
 23 38  1  6  0  0  0
 24 26  1  0  0  0  0
 24 69  1  0  0  0  0
 24 70  1  0  0  0  0
 25 30  1  0  0  0  0
 25 40  1  0  0  0  0
 25 41  1  1  0  0  0
 26 71  1  0  0  0  0
 26 72  1  0  0  0  0
 27 32  1  0  0  0  0
 27 73  1  0  0  0  0
 27 74  1  0  0  0  0
 28 36  2  0  0  0  0
 28 39  1  0  0  0  0
 29 37  1  0  0  0  0
 29 75  1  0  0  0  0
 29 76  1  0  0  0  0
 30 32  1  0  0  0  0
 30 77  1  0  0  0  0
 31 36  1  0  0  0  0
 31 37  1  0  0  0  0
 31 42  1  0  0  0  0
 31 46  1  1  0  0  0
 32 78  1  0  0  0  0
 32 79  1  0  0  0  0
 33 80  1  0  0  0  0
 33 81  1  0  0  0  0
 33 82  1  0  0  0  0
 34 39  2  0  0  0  0
 34 83  1  0  0  0  0
 35 84  1  0  0  0  0
 35 85  1  0  0  0  0
 35 86  1  0  0  0  0
 36 43  1  0  0  0  0
 37 87  1  0  0  0  0
 38 88  1  0  0  0  0
 38 89  1  0  0  0  0
 38 90  1  0  0  0  0
 39 91  1  0  0  0  0
 40 92  1  0  0  0  0
 40 93  1  0  0  0  0
 41 94  1  0  0  0  0
 41 95  1  0  0  0  0
 41 96  1  0  0  0  0
 42 45  1  0  0  0  0
 42 97  1  0  0  0  0
 42 98  1  0  0  0  0
 43 44  1  0  0  0  0
 43 99  1  0  0  0  0
 43100  1  0  0  0  0
 44 45  1  0  0  0  0
 44 47  1  0  0  0  0
 44 48  1  0  0  0  0
 45101  1  0  0  0  0
 45102  1  0  0  0  0
 46103  1  0  0  0  0
 46104  1  0  0  0  0
 47106  1  0  0  0  0
 47107  1  0  0  0  0
 47108  1  0  0  0  0
 48109  1  0  0  0  0
 48110  1  0  0  0  0
 48111  1  0  0  0  0
 49 50  1  0  0  0  0
 49112  1  0  0  0  0
 50 51  1  0  0  0  0
 50115  1  0  0  0  0
 51 53  1  0  0  0  0
 51116  1  0  0  0  0
 52 53  1  0  0  0  0
 52 54  1  6  0  0  0
 52117  1  0  0  0  0
 53118  1  0  0  0  0
 54120  1  0  0  0  0
 54121  1  0  0  0  0
 55 56  1  0  0  0  0
 55123  1  0  0  0  0
 56 58  1  0  0  0  0
 56124  1  0  0  0  0
 57 61  1  0  0  0  0
 57125  1  0  0  0  0
 58 60  1  0  0  0  0
 58126  1  0  0  0  0
 59 60  1  0  0  0  0
 59 65  1  6  0  0  0
 59127  1  0  0  0  0
 60128  1  0  0  0  0
 61 62  1  0  0  0  0
 61129  1  0  0  0  0
 62 64  1  0  0  0  0
 62130  1  0  0  0  0
 63 64  1  0  0  0  0
 63 66  1  1  0  0  0
 63132  1  0  0  0  0
 64133  1  0  0  0  0
 65134  1  0  0  0  0
 65135  1  0  0  0  0
 65136  1  0  0  0  0
 66140  1  0  0  0  0
 66141  1  0  0  0  0
M  END
> <PUBCHEM_COMPOUND_CID>
100962153

> <PUBCHEM_COMPOUND_CANONICALIZED>
1

> <PUBCHEM_CACTVS_COMPLEXITY>
1810

> <PUBCHEM_CACTVS_HBOND_ACCEPTOR>
18

> <PUBCHEM_CACTVS_HBOND_DONOR>
12

> <PUBCHEM_CACTVS_ROTATABLE_BOND>
10

> <PUBCHEM_CACTVS_SUBSKEYS>
AAADcfB8PgAAAAAAAAAAAAAAAAAAAAAAAAA0aNECAAAAAADAAAAAGgAACAAADxSwgAMCCAAABgCAAiBCAAAAAAAgAAAICAAAAAgZEAIAAQAiQAAFwAAPgAPA4PwPgAAAAAAAAADAAAYAADAAAAAAAAAAAA==

> <PUBCHEM_IUPAC_OPENEYE_NAME>
(2S,3R,4R,5R,6S)-2-[(2R,3S,4R,5R,6R)-6-[[(3S,4R,4aR,6aR,6bS,8S,8aS,14aR,14bS)-8-hydroxy-4,8a-bis(hydroxymethyl)-4,6a,6b,11,11,14b-hexamethyl-1,2,3,4a,5,6,7,8,9,10,12,14a-dodecahydropicen-3-yl]oxy]-4,5-dihydroxy-2-[[(2R,3R,4S,5S,6R)-3,4,5-trihydroxy-6-(hydroxymethyl)tetrahydropyran-2-yl]oxymethyl]tetrahydropyran-3-yl]oxy-6-methyl-tetrahydropyran-3,4,5-triol

> <PUBCHEM_IUPAC_CAS_NAME>
(2S,3R,4R,5R,6S)-2-[[(2R,3S,4R,5R,6R)-6-[[(3S,4R,4aR,6aR,6bS,8S,8aS,14aR,14bS)-8-hydroxy-4,8a-bis(hydroxymethyl)-4,6a,6b,11,11,14b-hexamethyl-1,2,3,4a,5,6,7,8,9,10,12,14a-dodecahydropicen-3-yl]oxy]-4,5-dihydroxy-2-[[(2R,3R,4S,5S,6R)-3,4,5-trihydroxy-6-(hydroxymethyl)-2-oxanyl]oxymethyl]-3-oxanyl]oxy]-6-methyloxane-3,4,5-triol

> <PUBCHEM_IUPAC_NAME_MARKUP>
(2<I>S</I>,3<I>R</I>,4<I>R</I>,5<I>R</I>,6<I>S</I>)-2-[(2<I>R</I>,3<I>S</I>,4<I>R</I>,5<I>R</I>,6<I>R</I>)-6-[[(3<I>S</I>,4<I>R</I>,4<I>a</I><I>R</I>,6<I>a</I><I>R</I>,6<I>b</I><I>S</I>,8<I>S</I>,8<I>a</I><I>S</I>,14<I>a</I><I>R</I>,14<I>b</I><I>S</I>)-8-hydroxy-4,8<I>a</I>-bis(hydroxymethyl)-4,6<I>a</I>,6<I>b</I>,11,11,14<I>b</I>-hexamethyl-1,2,3,4<I>a</I>,5,6,7,8,9,10,12,14<I>a</I>-dodecahydropicen-3-yl]oxy]-4,5-dihydroxy-2-[[(2<I>R</I>,3<I>R</I>,4<I>S</I>,5<I>S</I>,6<I>R</I>)-3,4,5-trihydroxy-6-(hydroxymethyl)oxan-2-yl]oxymethyl]oxan-3-yl]oxy-6-methyloxane-3,4,5-triol

> <PUBCHEM_IUPAC_NAME>
(2S,3R,4R,5R,6S)-2-[(2R,3S,4R,5R,6R)-6-[[(3S,4R,4aR,6aR,6bS,8S,8aS,14aR,14bS)-8-hydroxy-4,8a-bis(hydroxymethyl)-4,6a,6b,11,11,14b-hexamethyl-1,2,3,4a,5,6,7,8,9,10,12,14a-dodecahydropicen-3-yl]oxy]-4,5-dihydroxy-2-[[(2R,3R,4S,5S,6R)-3,4,5-trihydroxy-6-(hydroxymethyl)oxan-2-yl]oxymethyl]oxan-3-yl]oxy-6-methyloxane-3,4,5-triol

> <PUBCHEM_IUPAC_SYSTEMATIC_NAME>
(2S,3R,4R,5R,6S)-2-[(2R,3S,4R,5R,6R)-6-[[(3S,4R,4aR,6aR,6bS,8S,8aS,14aR,14bS)-4,8a-bis(hydroxymethyl)-4,6a,6b,11,11,14b-hexamethyl-8-oxidanyl-1,2,3,4a,5,6,7,8,9,10,12,14a-dodecahydropicen-3-yl]oxy]-2-[[(2R,3R,4S,5S,6R)-6-(hydroxymethyl)-3,4,5-tris(oxidanyl)oxan-2-yl]oxymethyl]-4,5-bis(oxidanyl)oxan-3-yl]oxy-6-methyl-oxane-3,4,5-triol

> <PUBCHEM_IUPAC_TRADITIONAL_NAME>
(2S,3R,4R,5R,6S)-2-[(2R,3S,4R,5R,6R)-6-[[(3S,4R,4aR,6aR,6bS,8S,8aS,14aR,14bS)-8-hydroxy-4,6a,6b,11,11,14b-hexamethyl-4,8a-dimethylol-1,2,3,4a,5,6,7,8,9,10,12,14a-dodecahydropicen-3-yl]oxy]-4,5-dihydroxy-2-[[(2R,3R,4S,5S,6R)-3,4,5-trihydroxy-6-methylol-tetrahydropyran-2-yl]oxymethyl]tetrahydropyran-3-yl]oxy-6-methyl-tetrahydropyran-3,4,5-triol

> <PUBCHEM_IUPAC_INCHI>
InChI=1S/C48H78O18/c1-22-31(53)33(55)37(59)41(62-22)66-39-26(19-61-40-36(58)34(56)32(54)25(18-49)63-40)64-42(38(60)35(39)57)65-30-11-12-44(4)27(45(30,5)20-50)10-13-46(6)28(44)9-8-23-24-16-43(2,3)14-15-48(24,21-51)29(52)17-47(23,46)7/h8-9,22,25-42,49-60H,10-21H2,1-7H3/t22-,25+,26+,27+,28+,29-,30-,31-,32+,33+,34-,35+,36+,37+,38+,39+,40+,41-,42-,44-,45-,46+,47+,48+/m0/s1

> <PUBCHEM_IUPAC_INCHIKEY>
YYHHNGWWKYBCRQ-WKAOFGGTSA-N

> <PUBCHEM_XLOGP3_AA>
0.4

> <PUBCHEM_EXACT_MASS>
942.518816

> <PUBCHEM_MOLECULAR_FORMULA>
C48H78O18

> <PUBCHEM_MOLECULAR_WEIGHT>
943.1

> <PUBCHEM_OPENEYE_CAN_SMILES>
CC1C(C(C(C(O1)OC2C(OC(C(C2O)O)OC3CCC4(C(C3(C)CO)CCC5(C4C=CC6=C7CC(CCC7(C(CC65C)O)CO)(C)C)C)C)COC8C(C(C(C(O8)CO)O)O)O)O)O)O

> <PUBCHEM_OPENEYE_ISO_SMILES>
C[C@H]1[C@@H]([C@H]([C@H]([C@@H](O1)O[C@@H]2[C@H](O[C@H]([C@@H]([C@H]2O)O)O[C@H]3CC[C@]4([C@H]([C@]3(C)CO)CC[C@@]5([C@@H]4C=CC6=C7CC(CC[C@@]7([C@H](C[C@]65C)O)CO)(C)C)C)C)CO[C@H]8[C@@H]([C@H]([C@@H]([C@H](O8)CO)O)O)O)O)O)O

> <PUBCHEM_CACTVS_TPSA>
298

> <PUBCHEM_MONOISOTOPIC_WEIGHT>
942.518816

> <PUBCHEM_TOTAL_CHARGE>
0

> <PUBCHEM_HEAVY_ATOM_COUNT>
66

> <PUBCHEM_ATOM_DEF_STEREO_COUNT>
24

> <PUBCHEM_ATOM_UDEF_STEREO_COUNT>
0

> <PUBCHEM_BOND_DEF_STEREO_COUNT>
0

> <PUBCHEM_BOND_UDEF_STEREO_COUNT>
0

> <PUBCHEM_ISOTOPIC_ATOM_COUNT>
0

> <PUBCHEM_COMPONENT_COUNT>
1

> <PUBCHEM_CACTVS_TAUTO_COUNT>
-1

> <PUBCHEM_COORDINATE_TYPE>
1
5
255

> <PUBCHEM_BONDANNOTATIONS>
30  1  5
49  1  6
56  12  6
58  13  6
60  14  5
61  15  6
62  16  5
64  17  6
19  33  5
37  2  5
20  35  5
21  67  6
22  68  6
23  38  6
25  41  5
31  46  5
52  54  6
59  65  6
50  6  5
63  66  5
51  7  6
53  8  5
55  8  5
57  9  5

$$$$
