21598300
  -OEChem-09172015262D

145152  0     1  0  0  0  0  0999 V2000
    9.4651    1.6941    0.0000 O   0  0  0  0  0  0  0  0  0  0  0  0
   12.1404   -6.0580    0.0000 O   0  0  0  0  0  0  0  0  0  0  0  0
   11.2189   -7.5853    0.0000 O   0  0  0  0  0  0  0  0  0  0  0  0
    7.7331    1.6941    0.0000 O   0  0  0  0  0  0  0  0  0  0  0  0
    9.4651    3.6941    0.0000 O   0  0  0  0  0  0  0  0  0  0  0  0
    7.7331    4.6941    0.0000 O   0  0  0  0  0  0  0  0  0  0  0  0
    6.0010    3.6941    0.0000 O   0  0  0  0  0  0  0  0  0  0  0  0
    6.0010    0.6941    0.0000 O   0  0  0  0  0  0  0  0  0  0  0  0
    6.8671    5.1941    0.0000 O   0  0  0  0  0  0  0  0  0  0  0  0
    4.2690    0.6941    0.0000 O   0  0  0  0  0  0  0  0  0  0  0  0
    4.2690    4.6941    0.0000 O   0  0  0  0  0  0  0  0  0  0  0  0
    4.2690    6.6941    0.0000 O   0  0  0  0  0  0  0  0  0  0  0  0
    6.0010   -1.3059    0.0000 O   0  0  0  0  0  0  0  0  0  0  0  0
    6.0010    7.6941    0.0000 O   0  0  0  0  0  0  0  0  0  0  0  0
    4.2690   -2.3059    0.0000 O   0  0  0  0  0  0  0  0  0  0  0  0
    2.5369   -1.3059    0.0000 O   0  0  0  0  0  0  0  0  0  0  0  0
    2.5369    1.6941    0.0000 O   0  0  0  0  0  0  0  0  0  0  0  0
   10.3662   -3.0061    0.0000 C   0  0  2  0  0  0  0  0  0  0  0  0
    9.5021   -2.5027    0.0000 C   0  0  1  0  0  0  0  0  0  0  0  0
    9.4901   -1.4612    0.0000 C   0  0  2  0  0  0  0  0  0  0  0  0
   10.3623   -4.0061    0.0000 C   0  0  1  0  0  0  0  0  0  0  0  0
   10.3901   -0.9369    0.0000 C   0  0  1  0  0  0  0  0  0  0  0  0
   11.2781   -2.5027    0.0000 C   0  0  0  0  0  0  0  0  0  0  0  0
    9.4944   -4.5027    0.0000 C   0  0  0  0  0  0  0  0  0  0  0  0
   11.2902   -1.4612    0.0000 C   0  0  0  0  0  0  0  0  0  0  0  0
   10.4027    0.1480    0.0000 C   0  0  0  0  0  0  0  0  0  0  0  0
    9.4743   -5.5442    0.0000 C   0  0  1  0  0  0  0  0  0  0  0  0
   10.3703   -6.0754    0.0000 C   0  0  1  0  0  0  0  0  0  0  0  0
   11.2704   -4.5164    0.0000 C   0  0  0  0  0  0  0  0  0  0  0  0
    8.6342   -2.9994    0.0000 C   0  0  0  0  0  0  0  0  0  0  0  0
    8.5402   -0.9369    0.0000 C   0  0  0  0  0  0  0  0  0  0  0  0
   11.2744   -5.5580    0.0000 C   0  0  2  0  0  0  0  0  0  0  0  0
   11.3503   -3.1835    0.0000 C   0  0  0  0  0  0  0  0  0  0  0  0
    9.4651    0.6941    0.0000 C   0  0  2  0  0  0  0  0  0  0  0  0
    8.6303   -3.9994    0.0000 C   0  0  0  0  0  0  0  0  0  0  0  0
    8.6260   -1.9645    0.0000 C   0  0  0  0  0  0  0  0  0  0  0  0
    8.5276    0.1480    0.0000 C   0  0  0  0  0  0  0  0  0  0  0  0
   11.3478   -3.8362    0.0000 C   0  0  0  0  0  0  0  0  0  0  0  0
    8.5204   -6.0611    0.0000 C   0  0  0  0  0  0  0  0  0  0  0  0
   10.3745   -7.1604    0.0000 C   0  0  0  0  0  0  0  0  0  0  0  0
    8.4995   -7.1459    0.0000 C   0  0  0  0  0  0  0  0  0  0  0  0
    9.4328   -7.6992    0.0000 C   0  0  0  0  0  0  0  0  0  0  0  0
   11.4026    0.1403    0.0000 C   0  0  0  0  0  0  0  0  0  0  0  0
   10.9093    1.0102    0.0000 C   0  0  0  0  0  0  0  0  0  0  0  0
   11.2305   -6.5854    0.0000 C   0  0  0  0  0  0  0  0  0  0  0  0
    7.9862   -8.0041    0.0000 C   0  0  0  0  0  0  0  0  0  0  0  0
    7.4996   -7.1305    0.0000 C   0  0  0  0  0  0  0  0  0  0  0  0
    8.5991    2.1941    0.0000 C   0  0  2  0  0  0  0  0  0  0  0  0
    8.5991    3.1941    0.0000 C   0  0  1  0  0  0  0  0  0  0  0  0
    7.7331    3.6941    0.0000 C   0  0  2  0  0  0  0  0  0  0  0  0
    6.8671    2.1941    0.0000 C   0  0  1  0  0  0  0  0  0  0  0  0
    6.8671    3.1941    0.0000 C   0  0  1  0  0  0  0  0  0  0  0  0
    6.0010    1.6941    0.0000 C   0  0  0  0  0  0  0  0  0  0  0  0
    6.0010    4.6941    0.0000 C   0  0  2  0  0  0  0  0  0  0  0  0
    5.1350    5.1941    0.0000 C   0  0  1  0  0  0  0  0  0  0  0  0
    5.1350    0.1941    0.0000 C   0  0  2  0  0  0  0  0  0  0  0  0
    5.1350    6.1941    0.0000 C   0  0  1  0  0  0  0  0  0  0  0  0
    6.8671    6.1941    0.0000 C   0  0  2  0  0  0  0  0  0  0  0  0
    5.1350   -0.8059    0.0000 C   0  0  1  0  0  0  0  0  0  0  0  0
    6.0010    6.6941    0.0000 C   0  0  2  0  0  0  0  0  0  0  0  0
    4.2690   -1.3059    0.0000 C   0  0  2  0  0  0  0  0  0  0  0  0
    3.4030    0.1941    0.0000 C   0  0  1  0  0  0  0  0  0  0  0  0
    3.4030   -0.8059    0.0000 C   0  0  1  0  0  0  0  0  0  0  0  0
    7.7331    6.6941    0.0000 C   0  0  0  0  0  0  0  0  0  0  0  0
    2.5369    0.6941    0.0000 C   0  0  0  0  0  0  0  0  0  0  0  0
   10.2366   -2.0749    0.0000 H   0  0  0  0  0  0  0  0  0  0  0  0
   11.1295   -0.5176    0.0000 H   0  0  0  0  0  0  0  0  0  0  0  0
   11.4804   -3.0888    0.0000 H   0  0  0  0  0  0  0  0  0  0  0  0
   11.8902   -2.4037    0.0000 H   0  0  0  0  0  0  0  0  0  0  0  0
   11.8998   -1.5743    0.0000 H   0  0  0  0  0  0  0  0  0  0  0  0
   11.5060   -0.8800    0.0000 H   0  0  0  0  0  0  0  0  0  0  0  0
    8.7482   -5.1023    0.0000 H   0  0  0  0  0  0  0  0  0  0  0  0
   11.8816   -4.6202    0.0000 H   0  0  0  0  0  0  0  0  0  0  0  0
   11.4772   -3.9319    0.0000 H   0  0  0  0  0  0  0  0  0  0  0  0
    8.4244   -2.4160    0.0000 H   0  0  0  0  0  0  0  0  0  0  0  0
    8.0232   -3.1047    0.0000 H   0  0  0  0  0  0  0  0  0  0  0  0
    7.9281   -0.8379    0.0000 H   0  0  0  0  0  0  0  0  0  0  0  0
    8.3379   -1.5230    0.0000 H   0  0  0  0  0  0  0  0  0  0  0  0
   11.8107   -5.2470    0.0000 H   0  0  0  0  0  0  0  0  0  0  0  0
   11.2403   -3.7937    0.0000 H   0  0  0  0  0  0  0  0  0  0  0  0
   11.9605   -3.2936    0.0000 H   0  0  0  0  0  0  0  0  0  0  0  0
   11.4603   -2.5734    0.0000 H   0  0  0  0  0  0  0  0  0  0  0  0
   10.0027    1.0031    0.0000 H   0  0  0  0  0  0  0  0  0  0  0  0
    8.0922   -4.3073    0.0000 H   0  0  0  0  0  0  0  0  0  0  0  0
    8.3139   -1.4288    0.0000 H   0  0  0  0  0  0  0  0  0  0  0  0
    8.0902   -2.2766    0.0000 H   0  0  0  0  0  0  0  0  0  0  0  0
    8.9380   -2.5003    0.0000 H   0  0  0  0  0  0  0  0  0  0  0  0
    8.3118    0.7293    0.0000 H   0  0  0  0  0  0  0  0  0  0  0  0
    7.9180    0.0349    0.0000 H   0  0  0  0  0  0  0  0  0  0  0  0
   11.4531   -4.4472    0.0000 H   0  0  0  0  0  0  0  0  0  0  0  0
   11.9588   -3.7309    0.0000 H   0  0  0  0  0  0  0  0  0  0  0  0
   11.2425   -3.2252    0.0000 H   0  0  0  0  0  0  0  0  0  0  0  0
    8.3226   -5.4735    0.0000 H   0  0  0  0  0  0  0  0  0  0  0  0
    7.9076   -6.1554    0.0000 H   0  0  0  0  0  0  0  0  0  0  0  0
   10.5858   -7.7433    0.0000 H   0  0  0  0  0  0  0  0  0  0  0  0
   10.9849   -7.0519    0.0000 H   0  0  0  0  0  0  0  0  0  0  0  0
    9.0300   -8.1706    0.0000 H   0  0  0  0  0  0  0  0  0  0  0  0
    9.8283   -8.1767    0.0000 H   0  0  0  0  0  0  0  0  0  0  0  0
   11.3979   -0.4797    0.0000 H   0  0  0  0  0  0  0  0  0  0  0  0
   12.0226    0.1355    0.0000 H   0  0  0  0  0  0  0  0  0  0  0  0
   11.4074    0.7603    0.0000 H   0  0  0  0  0  0  0  0  0  0  0  0
   11.4439    0.6960    0.0000 H   0  0  0  0  0  0  0  0  0  0  0  0
   11.2235    1.5447    0.0000 H   0  0  0  0  0  0  0  0  0  0  0  0
   10.3748    1.3243    0.0000 H   0  0  0  0  0  0  0  0  0  0  0  0
   11.8398   -6.7001    0.0000 H   0  0  0  0  0  0  0  0  0  0  0  0
   11.4493   -6.0052    0.0000 H   0  0  0  0  0  0  0  0  0  0  0  0
   12.6774   -5.7480    0.0000 H   0  0  0  0  0  0  0  0  0  0  0  0
    7.4541   -7.6859    0.0000 H   0  0  0  0  0  0  0  0  0  0  0  0
    7.6680   -8.5362    0.0000 H   0  0  0  0  0  0  0  0  0  0  0  0
    8.5183   -8.3224    0.0000 H   0  0  0  0  0  0  0  0  0  0  0  0
    7.5092   -6.5106    0.0000 H   0  0  0  0  0  0  0  0  0  0  0  0
    6.8797   -7.1209    0.0000 H   0  0  0  0  0  0  0  0  0  0  0  0
    7.4900   -7.7504    0.0000 H   0  0  0  0  0  0  0  0  0  0  0  0
    8.5991    1.5741    0.0000 H   0  0  0  0  0  0  0  0  0  0  0  0
   11.7523   -7.9015    0.0000 H   0  0  0  0  0  0  0  0  0  0  0  0
    8.5991    3.8141    0.0000 H   0  0  0  0  0  0  0  0  0  0  0  0
    7.1962    4.0041    0.0000 H   0  0  0  0  0  0  0  0  0  0  0  0
    6.8671    1.5741    0.0000 H   0  0  0  0  0  0  0  0  0  0  0  0
    6.3301    2.8841    0.0000 H   0  0  0  0  0  0  0  0  0  0  0  0
   10.0021    3.3841    0.0000 H   0  0  0  0  0  0  0  0  0  0  0  0
    5.7890    2.2767    0.0000 H   0  0  0  0  0  0  0  0  0  0  0  0
    5.3905    1.5865    0.0000 H   0  0  0  0  0  0  0  0  0  0  0  0
    8.2700    5.0041    0.0000 H   0  0  0  0  0  0  0  0  0  0  0  0
    5.4641    4.3841    0.0000 H   0  0  0  0  0  0  0  0  0  0  0  0
    4.5981    5.5041    0.0000 H   0  0  0  0  0  0  0  0  0  0  0  0
    5.1350    0.8141    0.0000 H   0  0  0  0  0  0  0  0  0  0  0  0
    5.1350    6.8141    0.0000 H   0  0  0  0  0  0  0  0  0  0  0  0
    7.4040    5.8841    0.0000 H   0  0  0  0  0  0  0  0  0  0  0  0
    5.1350   -1.4259    0.0000 H   0  0  0  0  0  0  0  0  0  0  0  0
    5.4641    7.0041    0.0000 H   0  0  0  0  0  0  0  0  0  0  0  0
    3.7320   -1.6159    0.0000 H   0  0  0  0  0  0  0  0  0  0  0  0
    3.7320    5.0041    0.0000 H   0  0  0  0  0  0  0  0  0  0  0  0
    3.4030    0.8141    0.0000 H   0  0  0  0  0  0  0  0  0  0  0  0
    3.4030   -1.4259    0.0000 H   0  0  0  0  0  0  0  0  0  0  0  0
    8.0431    6.1572    0.0000 H   0  0  0  0  0  0  0  0  0  0  0  0
    8.2700    7.0041    0.0000 H   0  0  0  0  0  0  0  0  0  0  0  0
    7.4231    7.2311    0.0000 H   0  0  0  0  0  0  0  0  0  0  0  0
    4.2690    7.3141    0.0000 H   0  0  0  0  0  0  0  0  0  0  0  0
    6.5380   -0.9959    0.0000 H   0  0  0  0  0  0  0  0  0  0  0  0
    6.5380    8.0041    0.0000 H   0  0  0  0  0  0  0  0  0  0  0  0
    1.9264    0.8018    0.0000 H   0  0  0  0  0  0  0  0  0  0  0  0
    2.3249    0.1115    0.0000 H   0  0  0  0  0  0  0  0  0  0  0  0
    3.7320   -2.6159    0.0000 H   0  0  0  0  0  0  0  0  0  0  0  0
    2.0000   -0.9959    0.0000 H   0  0  0  0  0  0  0  0  0  0  0  0
    2.0000    2.0041    0.0000 H   0  0  0  0  0  0  0  0  0  0  0  0
 34  1  1  6  0  0  0
 48  1  1  6  0  0  0
 32  2  1  6  0  0  0
  2107  1  0  0  0  0
  3 45  1  0  0  0  0
  3115  1  0  0  0  0
  4 48  1  0  0  0  0
  4 51  1  0  0  0  0
 49  5  1  1  0  0  0
  5120  1  0  0  0  0
 50  6  1  6  0  0  0
  6123  1  0  0  0  0
 52  7  1  1  0  0  0
 54  7  1  1  0  0  0
  8 53  1  0  0  0  0
 56  8  1  1  0  0  0
  9 54  1  0  0  0  0
  9 58  1  0  0  0  0
 10 56  1  0  0  0  0
 10 62  1  0  0  0  0
 55 11  1  6  0  0  0
 11132  1  0  0  0  0
 57 12  1  6  0  0  0
 12138  1  0  0  0  0
 59 13  1  6  0  0  0
 13139  1  0  0  0  0
 60 14  1  1  0  0  0
 14140  1  0  0  0  0
 61 15  1  1  0  0  0
 15143  1  0  0  0  0
 63 16  1  6  0  0  0
 16144  1  0  0  0  0
 17 65  1  0  0  0  0
 17145  1  0  0  0  0
 18 19  1  0  0  0  0
 18 21  1  0  0  0  0
 18 23  1  0  0  0  0
 18 33  1  6  0  0  0
 19 20  1  0  0  0  0
 19 30  1  0  0  0  0
 19 66  1  1  0  0  0
 20 22  1  0  0  0  0
 20 31  1  0  0  0  0
 20 36  1  6  0  0  0
 21 24  1  0  0  0  0
 21 29  1  0  0  0  0
 21 38  1  1  0  0  0
 22 25  1  0  0  0  0
 22 26  1  0  0  0  0
 22 67  1  1  0  0  0
 23 25  1  0  0  0  0
 23 68  1  0  0  0  0
 23 69  1  0  0  0  0
 24 27  1  0  0  0  0
 24 35  2  0  0  0  0
 25 70  1  0  0  0  0
 25 71  1  0  0  0  0
 26 34  1  0  0  0  0
 26 43  1  0  0  0  0
 26 44  1  0  0  0  0
 27 28  1  0  0  0  0
 27 39  1  0  0  0  0
 27 72  1  6  0  0  0
 28 32  1  0  0  0  0
 28 40  1  0  0  0  0
 28 45  1  6  0  0  0
 29 32  1  0  0  0  0
 29 73  1  0  0  0  0
 29 74  1  0  0  0  0
 30 35  1  0  0  0  0
 30 75  1  0  0  0  0
 30 76  1  0  0  0  0
 31 37  1  0  0  0  0
 31 77  1  0  0  0  0
 31 78  1  0  0  0  0
 32 79  1  0  0  0  0
 33 80  1  0  0  0  0
 33 81  1  0  0  0  0
 33 82  1  0  0  0  0
 34 37  1  0  0  0  0
 34 83  1  0  0  0  0
 35 84  1  0  0  0  0
 36 85  1  0  0  0  0
 36 86  1  0  0  0  0
 36 87  1  0  0  0  0
 37 88  1  0  0  0  0
 37 89  1  0  0  0  0
 38 90  1  0  0  0  0
 38 91  1  0  0  0  0
 38 92  1  0  0  0  0
 39 41  1  0  0  0  0
 39 93  1  0  0  0  0
 39 94  1  0  0  0  0
 40 42  1  0  0  0  0
 40 95  1  0  0  0  0
 40 96  1  0  0  0  0
 41 42  1  0  0  0  0
 41 46  1  0  0  0  0
 41 47  1  0  0  0  0
 42 97  1  0  0  0  0
 42 98  1  0  0  0  0
 43 99  1  0  0  0  0
 43100  1  0  0  0  0
 43101  1  0  0  0  0
 44102  1  0  0  0  0
 44103  1  0  0  0  0
 44104  1  0  0  0  0
 45105  1  0  0  0  0
 45106  1  0  0  0  0
 46108  1  0  0  0  0
 46109  1  0  0  0  0
 46110  1  0  0  0  0
 47111  1  0  0  0  0
 47112  1  0  0  0  0
 47113  1  0  0  0  0
 48 49  1  0  0  0  0
 48114  1  0  0  0  0
 49 50  1  0  0  0  0
 49116  1  0  0  0  0
 50 52  1  0  0  0  0
 50117  1  0  0  0  0
 51 52  1  0  0  0  0
 51 53  1  6  0  0  0
 51118  1  0  0  0  0
 52119  1  0  0  0  0
 53121  1  0  0  0  0
 53122  1  0  0  0  0
 54 55  1  0  0  0  0
 54124  1  0  0  0  0
 55 57  1  0  0  0  0
 55125  1  0  0  0  0
 56 59  1  0  0  0  0
 56126  1  0  0  0  0
 57 60  1  0  0  0  0
 57127  1  0  0  0  0
 58 60  1  0  0  0  0
 58 64  1  6  0  0  0
 58128  1  0  0  0  0
 59 61  1  0  0  0  0
 59129  1  0  0  0  0
 60130  1  0  0  0  0
 61 63  1  0  0  0  0
 61131  1  0  0  0  0
 62 63  1  0  0  0  0
 62 65  1  1  0  0  0
 62133  1  0  0  0  0
 63134  1  0  0  0  0
 64135  1  0  0  0  0
 64136  1  0  0  0  0
 64137  1  0  0  0  0
 65141  1  0  0  0  0
 65142  1  0  0  0  0
M  END
> <PUBCHEM_COMPOUND_CID>
21598300

> <PUBCHEM_COMPOUND_CANONICALIZED>
1

> <PUBCHEM_CACTVS_COMPLEXITY>
1730

> <PUBCHEM_CACTVS_HBOND_ACCEPTOR>
17

> <PUBCHEM_CACTVS_HBOND_DONOR>
11

> <PUBCHEM_CACTVS_ROTATABLE_BOND>
9

> <PUBCHEM_CACTVS_SUBSKEYS>
AAADcfB8PgAAAAAAAAAAAAAAAAAAAAAAAAA0aNGCAAAAAADAAAAAGgAACAAADxSwgAMCCAAABgCAAiBCAAAAAAAgAAAACAAAAAgREAIAAQAiQAAFgAAPAAPA4PwPgAAAAAAAAADAAAYAADAAAAAAAAAAAA==

> <PUBCHEM_IUPAC_OPENEYE_NAME>
(2S,3R,4R,5R,6S)-2-[(2R,3S,4R,5R,6R)-6-[[(3S,4aR,6aR,6bS,8S,8aS,12aS,14aR,14bR)-8-hydroxy-8a-(hydroxymethyl)-4,4,6a,6b,11,11,14b-heptamethyl-1,2,3,4a,5,6,7,8,9,10,12,12a,14,14a-tetradecahydropicen-3-yl]oxy]-4,5-dihydroxy-2-[[(2R,3R,4S,5S,6R)-3,4,5-trihydroxy-6-(hydroxymethyl)tetrahydropyran-2-yl]oxymethyl]tetrahydropyran-3-yl]oxy-6-methyl-tetrahydropyran-3,4,5-triol

> <PUBCHEM_IUPAC_CAS_NAME>
(2S,3R,4R,5R,6S)-2-[[(2R,3S,4R,5R,6R)-6-[[(3S,4aR,6aR,6bS,8S,8aS,12aS,14aR,14bR)-8-hydroxy-8a-(hydroxymethyl)-4,4,6a,6b,11,11,14b-heptamethyl-1,2,3,4a,5,6,7,8,9,10,12,12a,14,14a-tetradecahydropicen-3-yl]oxy]-4,5-dihydroxy-2-[[(2R,3R,4S,5S,6R)-3,4,5-trihydroxy-6-(hydroxymethyl)-2-oxanyl]oxymethyl]-3-oxanyl]oxy]-6-methyloxane-3,4,5-triol

> <PUBCHEM_IUPAC_NAME_MARKUP>
(2<I>S</I>,3<I>R</I>,4<I>R</I>,5<I>R</I>,6<I>S</I>)-2-[(2<I>R</I>,3<I>S</I>,4<I>R</I>,5<I>R</I>,6<I>R</I>)-6-[[(3<I>S</I>,4<I>a</I><I>R</I>,6<I>a</I><I>R</I>,6<I>b</I><I>S</I>,8<I>S</I>,8<I>a</I><I>S</I>,12<I>a</I><I>S</I>,14<I>a</I><I>R</I>,14<I>b</I><I>R</I>)-8-hydroxy-8<I>a</I>-(hydroxymethyl)-4,4,6<I>a</I>,6<I>b</I>,11,11,14<I>b</I>-heptamethyl-1,2,3,4<I>a</I>,5,6,7,8,9,10,12,12<I>a</I>,14,14<I>a</I>-tetradecahydropicen-3-yl]oxy]-4,5-dihydroxy-2-[[(2<I>R</I>,3<I>R</I>,4<I>S</I>,5<I>S</I>,6<I>R</I>)-3,4,5-trihydroxy-6-(hydroxymethyl)oxan-2-yl]oxymethyl]oxan-3-yl]oxy-6-methyloxane-3,4,5-triol

> <PUBCHEM_IUPAC_NAME>
(2S,3R,4R,5R,6S)-2-[(2R,3S,4R,5R,6R)-6-[[(3S,4aR,6aR,6bS,8S,8aS,12aS,14aR,14bR)-8-hydroxy-8a-(hydroxymethyl)-4,4,6a,6b,11,11,14b-heptamethyl-1,2,3,4a,5,6,7,8,9,10,12,12a,14,14a-tetradecahydropicen-3-yl]oxy]-4,5-dihydroxy-2-[[(2R,3R,4S,5S,6R)-3,4,5-trihydroxy-6-(hydroxymethyl)oxan-2-yl]oxymethyl]oxan-3-yl]oxy-6-methyloxane-3,4,5-triol

> <PUBCHEM_IUPAC_SYSTEMATIC_NAME>
(2S,3R,4R,5R,6S)-2-[(2R,3S,4R,5R,6R)-6-[[(3S,4aR,6aR,6bS,8S,8aS,12aS,14aR,14bR)-8a-(hydroxymethyl)-4,4,6a,6b,11,11,14b-heptamethyl-8-oxidanyl-1,2,3,4a,5,6,7,8,9,10,12,12a,14,14a-tetradecahydropicen-3-yl]oxy]-2-[[(2R,3R,4S,5S,6R)-6-(hydroxymethyl)-3,4,5-tris(oxidanyl)oxan-2-yl]oxymethyl]-4,5-bis(oxidanyl)oxan-3-yl]oxy-6-methyl-oxane-3,4,5-triol

> <PUBCHEM_IUPAC_TRADITIONAL_NAME>
(2S,3R,4R,5R,6S)-2-[(2R,3S,4R,5R,6R)-6-[[(3S,4aR,6aR,6bS,8S,8aS,12aS,14aR,14bR)-8-hydroxy-4,4,6a,6b,11,11,14b-heptamethyl-8a-methylol-1,2,3,4a,5,6,7,8,9,10,12,12a,14,14a-tetradecahydropicen-3-yl]oxy]-4,5-dihydroxy-2-[[(2R,3R,4S,5S,6R)-3,4,5-trihydroxy-6-methylol-tetrahydropyran-2-yl]oxymethyl]tetrahydropyran-3-yl]oxy-6-methyl-tetrahydropyran-3,4,5-triol

> <PUBCHEM_IUPAC_INCHI>
InChI=1S/C48H80O17/c1-22-31(52)33(54)37(58)41(61-22)65-39-26(20-60-40-36(57)34(55)32(53)25(19-49)62-40)63-42(38(59)35(39)56)64-30-12-13-45(6)27(44(30,4)5)11-14-46(7)28(45)10-9-23-24-17-43(2,3)15-16-48(24,21-50)29(51)18-47(23,46)8/h9,22,24-42,49-59H,10-21H2,1-8H3/t22-,24-,25+,26+,27-,28+,29-,30-,31-,32+,33+,34-,35+,36+,37+,38+,39+,40+,41-,42-,45-,46+,47+,48+/m0/s1

> <PUBCHEM_IUPAC_INCHIKEY>
SXILFEBNQCRWAL-VERCZQKXSA-N

> <PUBCHEM_XLOGP3_AA>
2.1

> <PUBCHEM_EXACT_MASS>
928.539551

> <PUBCHEM_MOLECULAR_FORMULA>
C48H80O17

> <PUBCHEM_MOLECULAR_WEIGHT>
929.1

> <PUBCHEM_OPENEYE_CAN_SMILES>
CC1C(C(C(C(O1)OC2C(OC(C(C2O)O)OC3CCC4(C(C3(C)C)CCC5(C4CC=C6C5(CC(C7(C6CC(CC7)(C)C)CO)O)C)C)C)COC8C(C(C(C(O8)CO)O)O)O)O)O)O

> <PUBCHEM_OPENEYE_ISO_SMILES>
C[C@H]1[C@@H]([C@H]([C@H]([C@@H](O1)O[C@@H]2[C@H](O[C@H]([C@@H]([C@H]2O)O)O[C@H]3CC[C@]4([C@H](C3(C)C)CC[C@@]5([C@@H]4CC=C6[C@]5(C[C@@H]([C@@]7([C@H]6CC(CC7)(C)C)CO)O)C)C)C)CO[C@H]8[C@@H]([C@H]([C@@H]([C@H](O8)CO)O)O)O)O)O)O

> <PUBCHEM_CACTVS_TPSA>
278

> <PUBCHEM_MONOISOTOPIC_WEIGHT>
928.539551

> <PUBCHEM_TOTAL_CHARGE>
0

> <PUBCHEM_HEAVY_ATOM_COUNT>
65

> <PUBCHEM_ATOM_DEF_STEREO_COUNT>
24

> <PUBCHEM_ATOM_UDEF_STEREO_COUNT>
0

> <PUBCHEM_BOND_DEF_STEREO_COUNT>
0

> <PUBCHEM_BOND_UDEF_STEREO_COUNT>
0

> <PUBCHEM_ISOTOPIC_ATOM_COUNT>
0

> <PUBCHEM_COMPONENT_COUNT>
1

> <PUBCHEM_CACTVS_TAUTO_COUNT>
-1

> <PUBCHEM_COORDINATE_TYPE>
1
5
255

> <PUBCHEM_BONDANNOTATIONS>
34  1  6
48  1  6
55  11  6
57  12  6
59  13  6
60  14  5
61  15  5
63  16  6
18  33  6
19  66  5
32  2  6
20  36  6
21  38  5
22  67  5
27  72  6
28  45  6
49  5  5
51  53  6
58  64  6
50  6  6
62  65  5
52  7  5
54  7  5
56  8  5

$$$$
