102059426
  -OEChem-09172016142D

131138  0     1  0  0  0  0  0999 V2000
   10.4369    4.8469    0.0000 O   0  0  0  0  0  0  0  0  0  0  0  0
   12.4605    6.1356    0.0000 O   0  0  0  0  0  0  0  0  0  0  0  0
    9.7942   -1.7536    0.0000 O   0  0  0  0  0  0  0  0  0  0  0  0
   12.2774   -1.0392    0.0000 O   0  0  0  0  0  0  0  0  0  0  0  0
    8.0622   -1.7536    0.0000 O   0  0  0  0  0  0  0  0  0  0  0  0
    9.7942   -3.7536    0.0000 O   0  0  0  0  0  0  0  0  0  0  0  0
    8.0622   -4.7536    0.0000 O   0  0  0  0  0  0  0  0  0  0  0  0
    6.3301   -3.7536    0.0000 O   0  0  0  0  0  0  0  0  0  0  0  0
    6.3301   -4.7536    0.0000 O   0  0  0  0  0  0  0  0  0  0  0  0
    8.0622   -6.7536    0.0000 O   0  0  0  0  0  0  0  0  0  0  0  0
    6.3301   -7.7536    0.0000 O   0  0  0  0  0  0  0  0  0  0  0  0
    4.5981   -6.7536    0.0000 O   0  0  0  0  0  0  0  0  0  0  0  0
    4.5981   -3.7536    0.0000 O   0  0  0  0  0  0  0  0  0  0  0  0
    2.8660   -3.7536    0.0000 O   0  0  0  0  0  0  0  0  0  0  0  0
    2.8660   -0.7536    0.0000 O   0  0  0  0  0  0  0  0  0  0  0  0
    2.0000   -2.2536    0.0000 O   0  0  0  0  0  0  0  0  0  0  0  0
   10.7208    4.1422    0.0000 C   0  0  2  0  0  0  0  0  0  0  0  0
    9.8567    4.6456    0.0000 C   0  0  2  0  0  0  0  0  0  0  0  0
   10.7328    3.1007    0.0000 C   0  0  1  0  0  0  0  0  0  0  0  0
    9.8605    5.6456    0.0000 C   0  0  1  0  0  0  0  0  0  0  0  0
   10.7285    6.1422    0.0000 C   0  0  2  0  0  0  0  0  0  0  0  0
    9.8327    2.5764    0.0000 C   0  0  1  0  0  0  0  0  0  0  0  0
    9.8202    1.4915    0.0000 C   0  0  2  0  0  0  0  0  0  0  0  0
   11.5887    4.6389    0.0000 C   0  0  0  0  0  0  0  0  0  0  0  0
   11.5926    5.6389    0.0000 C   0  0  2  0  0  0  0  0  0  0  0  0
   10.7577    0.9454    0.0000 C   0  0  1  0  0  0  0  0  0  0  0  0
   11.6827    2.5764    0.0000 C   0  0  0  0  0  0  0  0  0  0  0  0
   10.8395    5.5382    0.0000 C   0  0  0  0  0  0  0  0  0  0  0  0
    8.9525    6.1559    0.0000 C   0  0  0  0  0  0  0  0  0  0  0  0
   10.7485    7.1837    0.0000 C   0  0  0  0  0  0  0  0  0  0  0  0
    8.9447    4.1422    0.0000 C   0  0  0  0  0  0  0  0  0  0  0  0
   11.6953    1.4915    0.0000 C   0  0  0  0  0  0  0  0  0  0  0  0
   11.7049    3.9648    0.0000 C   0  0  0  0  0  0  0  0  0  0  0  0
    8.9327    3.1007    0.0000 C   0  0  0  0  0  0  0  0  0  0  0  0
    8.9485    7.1976    0.0000 C   0  0  0  0  0  0  0  0  0  0  0  0
   10.7708   -0.1847    0.0000 C   0  0  1  0  0  0  0  0  0  0  0  0
   11.7169    3.2781    0.0000 C   0  0  0  0  0  0  0  0  0  0  0  0
    8.8307    0.9454    0.0000 C   0  0  0  0  0  0  0  0  0  0  0  0
    9.8525    7.7149    0.0000 C   0  0  0  0  0  0  0  0  0  0  0  0
    8.9561    1.9948    0.0000 C   0  0  0  0  0  0  0  0  0  0  0  0
    9.7942   -0.7536    0.0000 C   0  0  2  0  0  0  0  0  0  0  0  0
    8.8177   -0.1847    0.0000 C   0  0  0  0  0  0  0  0  0  0  0  0
    8.4485    8.0636    0.0000 C   0  0  0  0  0  0  0  0  0  0  0  0
    7.9485    7.1976    0.0000 C   0  0  0  0  0  0  0  0  0  0  0  0
   11.7708   -0.1770    0.0000 C   0  0  0  0  0  0  0  0  0  0  0  0
   11.2775   -1.0469    0.0000 C   0  0  0  0  0  0  0  0  0  0  0  0
    8.9282   -2.2536    0.0000 C   0  0  2  0  0  0  0  0  0  0  0  0
    8.9282   -3.2536    0.0000 C   0  0  1  0  0  0  0  0  0  0  0  0
    8.0622   -3.7536    0.0000 C   0  0  2  0  0  0  0  0  0  0  0  0
    7.1962   -2.2536    0.0000 C   0  0  1  0  0  0  0  0  0  0  0  0
    7.1962   -3.2536    0.0000 C   0  0  2  0  0  0  0  0  0  0  0  0
    6.3301   -1.7536    0.0000 C   0  0  0  0  0  0  0  0  0  0  0  0
    7.1962   -5.2536    0.0000 C   0  0  2  0  0  0  0  0  0  0  0  0
    7.1962   -6.2536    0.0000 C   0  0  1  0  0  0  0  0  0  0  0  0
    6.3301   -6.7536    0.0000 C   0  0  2  0  0  0  0  0  0  0  0  0
    5.4641   -5.2536    0.0000 C   0  0  1  0  0  0  0  0  0  0  0  0
    5.4641   -6.2536    0.0000 C   0  0  1  0  0  0  0  0  0  0  0  0
    4.5981   -4.7536    0.0000 C   0  0  0  0  0  0  0  0  0  0  0  0
    3.7320   -3.2536    0.0000 C   0  0  0  0  0  0  0  0  0  0  0  0
    3.7320   -2.2536    0.0000 C   0  0  0  0  0  0  0  0  0  0  0  0
    2.8660   -1.7536    0.0000 C   0  0  0  0  0  0  0  0  0  0  0  0
    9.1228    5.2234    0.0000 H   0  0  0  0  0  0  0  0  0  0  0  0
    9.0934    2.1571    0.0000 H   0  0  0  0  0  0  0  0  0  0  0  0
   11.7985    4.0555    0.0000 H   0  0  0  0  0  0  0  0  0  0  0  0
   12.1997    4.7442    0.0000 H   0  0  0  0  0  0  0  0  0  0  0  0
   11.5949    6.2589    0.0000 H   0  0  0  0  0  0  0  0  0  0  0  0
   11.4971    0.5261    0.0000 H   0  0  0  0  0  0  0  0  0  0  0  0
   12.2948    2.4774    0.0000 H   0  0  0  0  0  0  0  0  0  0  0  0
   11.8850    3.1625    0.0000 H   0  0  0  0  0  0  0  0  0  0  0  0
   11.2649    5.0872    0.0000 H   0  0  0  0  0  0  0  0  0  0  0  0
   11.3926    5.8185    0.0000 H   0  0  0  0  0  0  0  0  0  0  0  0
    8.3412    6.2597    0.0000 H   0  0  0  0  0  0  0  0  0  0  0  0
    8.7457    5.5714    0.0000 H   0  0  0  0  0  0  0  0  0  0  0  0
   11.3572    7.0658    0.0000 H   0  0  0  0  0  0  0  0  0  0  0  0
   10.9688    7.7632    0.0000 H   0  0  0  0  0  0  0  0  0  0  0  0
    8.4126    4.4605    0.0000 H   0  0  0  0  0  0  0  0  0  0  0  0
   11.9111    0.9102    0.0000 H   0  0  0  0  0  0  0  0  0  0  0  0
   12.3048    1.6046    0.0000 H   0  0  0  0  0  0  0  0  0  0  0  0
   11.5949    3.3546    0.0000 H   0  0  0  0  0  0  0  0  0  0  0  0
   12.3150    3.8548    0.0000 H   0  0  0  0  0  0  0  0  0  0  0  0
   11.8149    4.5750    0.0000 H   0  0  0  0  0  0  0  0  0  0  0  0
    8.3934    2.7948    0.0000 H   0  0  0  0  0  0  0  0  0  0  0  0
   11.8269    2.6680    0.0000 H   0  0  0  0  0  0  0  0  0  0  0  0
   12.3271    3.3882    0.0000 H   0  0  0  0  0  0  0  0  0  0  0  0
   11.6069    3.8883    0.0000 H   0  0  0  0  0  0  0  0  0  0  0  0
    8.6284    1.5314    0.0000 H   0  0  0  0  0  0  0  0  0  0  0  0
    8.2187    0.8463    0.0000 H   0  0  0  0  0  0  0  0  0  0  0  0
   10.2553    8.1862    0.0000 H   0  0  0  0  0  0  0  0  0  0  0  0
    9.4571    8.1924    0.0000 H   0  0  0  0  0  0  0  0  0  0  0  0
    9.2682    2.5306    0.0000 H   0  0  0  0  0  0  0  0  0  0  0  0
    8.4204    2.3069    0.0000 H   0  0  0  0  0  0  0  0  0  0  0  0
    8.6440    1.4591    0.0000 H   0  0  0  0  0  0  0  0  0  0  0  0
   10.3318   -1.0625    0.0000 H   0  0  0  0  0  0  0  0  0  0  0  0
    8.2081   -0.0716    0.0000 H   0  0  0  0  0  0  0  0  0  0  0  0
    8.6019   -0.7660    0.0000 H   0  0  0  0  0  0  0  0  0  0  0  0
   12.9962    5.8235    0.0000 H   0  0  0  0  0  0  0  0  0  0  0  0
   12.3517    0.0395    0.0000 H   0  0  0  0  0  0  0  0  0  0  0  0
   11.6584    0.4327    0.0000 H   0  0  0  0  0  0  0  0  0  0  0  0
    8.9854    8.3736    0.0000 H   0  0  0  0  0  0  0  0  0  0  0  0
    8.1385    8.6005    0.0000 H   0  0  0  0  0  0  0  0  0  0  0  0
    7.9115    7.7536    0.0000 H   0  0  0  0  0  0  0  0  0  0  0  0
    7.9485    7.8176    0.0000 H   0  0  0  0  0  0  0  0  0  0  0  0
    7.3285    7.1976    0.0000 H   0  0  0  0  0  0  0  0  0  0  0  0
    7.9485    6.5776    0.0000 H   0  0  0  0  0  0  0  0  0  0  0  0
   10.7429   -1.3610    0.0000 H   0  0  0  0  0  0  0  0  0  0  0  0
   11.5916   -1.5814    0.0000 H   0  0  0  0  0  0  0  0  0  0  0  0
   11.8120   -0.7327    0.0000 H   0  0  0  0  0  0  0  0  0  0  0  0
   12.8974   -1.0344    0.0000 H   0  0  0  0  0  0  0  0  0  0  0  0
    8.9282   -1.6336    0.0000 H   0  0  0  0  0  0  0  0  0  0  0  0
    9.4651   -2.9436    0.0000 H   0  0  0  0  0  0  0  0  0  0  0  0
    8.5991   -4.0636    0.0000 H   0  0  0  0  0  0  0  0  0  0  0  0
    7.1962   -1.6336    0.0000 H   0  0  0  0  0  0  0  0  0  0  0  0
    7.1962   -3.8736    0.0000 H   0  0  0  0  0  0  0  0  0  0  0  0
    9.7942   -4.3736    0.0000 H   0  0  0  0  0  0  0  0  0  0  0  0
    6.6401   -1.2166    0.0000 H   0  0  0  0  0  0  0  0  0  0  0  0
    5.7932   -1.4436    0.0000 H   0  0  0  0  0  0  0  0  0  0  0  0
    6.0201   -2.2905    0.0000 H   0  0  0  0  0  0  0  0  0  0  0  0
    5.7932   -3.4436    0.0000 H   0  0  0  0  0  0  0  0  0  0  0  0
    7.7331   -5.5636    0.0000 H   0  0  0  0  0  0  0  0  0  0  0  0
    7.1962   -6.8736    0.0000 H   0  0  0  0  0  0  0  0  0  0  0  0
    5.7932   -7.0636    0.0000 H   0  0  0  0  0  0  0  0  0  0  0  0
    5.4641   -4.6336    0.0000 H   0  0  0  0  0  0  0  0  0  0  0  0
    5.4641   -6.8736    0.0000 H   0  0  0  0  0  0  0  0  0  0  0  0
    8.0622   -7.3736    0.0000 H   0  0  0  0  0  0  0  0  0  0  0  0
    3.9875   -4.6459    0.0000 H   0  0  0  0  0  0  0  0  0  0  0  0
    4.3860   -5.3362    0.0000 H   0  0  0  0  0  0  0  0  0  0  0  0
    5.7932   -8.0636    0.0000 H   0  0  0  0  0  0  0  0  0  0  0  0
    4.0611   -6.4436    0.0000 H   0  0  0  0  0  0  0  0  0  0  0  0
    4.3426   -2.3612    0.0000 H   0  0  0  0  0  0  0  0  0  0  0  0
    3.9441   -1.6710    0.0000 H   0  0  0  0  0  0  0  0  0  0  0  0
    2.3291   -0.4436    0.0000 H   0  0  0  0  0  0  0  0  0  0  0  0
  1 18  1  0  0  0  0
  1 28  1  0  0  0  0
 25  2  1  1  0  0  0
  2 96  1  0  0  0  0
 41  3  1  1  0  0  0
 47  3  1  1  0  0  0
  4 45  1  0  0  0  0
  4108  1  0  0  0  0
  5 47  1  0  0  0  0
  5 50  1  0  0  0  0
 48  6  1  6  0  0  0
  6114  1  0  0  0  0
 49  7  1  1  0  0  0
 53  7  1  1  0  0  0
 51  8  1  1  0  0  0
  8118  1  0  0  0  0
  9 53  1  0  0  0  0
  9 56  1  0  0  0  0
 54 10  1  6  0  0  0
 10124  1  0  0  0  0
 55 11  1  1  0  0  0
 11127  1  0  0  0  0
 57 12  1  6  0  0  0
 12128  1  0  0  0  0
 13 58  1  0  0  0  0
 13 59  1  0  0  0  0
 14 59  2  0  0  0  0
 15 61  1  0  0  0  0
 15131  1  0  0  0  0
 16 61  2  0  0  0  0
 17 18  1  0  0  0  0
 17 19  1  0  0  0  0
 17 24  1  0  0  0  0
 17 33  1  6  0  0  0
 18 20  1  0  0  0  0
 18 31  1  1  0  0  0
 19 22  1  0  0  0  0
 19 27  1  0  0  0  0
 19 37  1  1  0  0  0
 20 21  1  0  0  0  0
 20 29  1  0  0  0  0
 20 62  1  1  0  0  0
 21 25  1  0  0  0  0
 21 28  1  0  0  0  0
 21 30  1  1  0  0  0
 22 23  1  0  0  0  0
 22 34  1  0  0  0  0
 22 63  1  6  0  0  0
 23 26  1  0  0  0  0
 23 38  1  0  0  0  0
 23 40  1  1  0  0  0
 24 25  1  0  0  0  0
 24 64  1  0  0  0  0
 24 65  1  0  0  0  0
 25 66  1  0  0  0  0
 26 32  1  0  0  0  0
 26 36  1  0  0  0  0
 26 67  1  6  0  0  0
 27 32  1  0  0  0  0
 27 68  1  0  0  0  0
 27 69  1  0  0  0  0
 28 70  1  0  0  0  0
 28 71  1  0  0  0  0
 29 35  1  0  0  0  0
 29 72  1  0  0  0  0
 29 73  1  0  0  0  0
 30 39  1  0  0  0  0
 30 74  1  0  0  0  0
 30 75  1  0  0  0  0
 31 34  2  0  0  0  0
 31 76  1  0  0  0  0
 32 77  1  0  0  0  0
 32 78  1  0  0  0  0
 33 79  1  0  0  0  0
 33 80  1  0  0  0  0
 33 81  1  0  0  0  0
 34 82  1  0  0  0  0
 35 39  1  0  0  0  0
 35 43  1  0  0  0  0
 35 44  1  0  0  0  0
 36 41  1  0  0  0  0
 36 45  1  0  0  0  0
 36 46  1  1  0  0  0
 37 83  1  0  0  0  0
 37 84  1  0  0  0  0
 37 85  1  0  0  0  0
 38 42  1  0  0  0  0
 38 86  1  0  0  0  0
 38 87  1  0  0  0  0
 39 88  1  0  0  0  0
 39 89  1  0  0  0  0
 40 90  1  0  0  0  0
 40 91  1  0  0  0  0
 40 92  1  0  0  0  0
 41 42  1  0  0  0  0
 41 93  1  0  0  0  0
 42 94  1  0  0  0  0
 42 95  1  0  0  0  0
 43 99  1  0  0  0  0
 43100  1  0  0  0  0
 43101  1  0  0  0  0
 44102  1  0  0  0  0
 44103  1  0  0  0  0
 44104  1  0  0  0  0
 45 97  1  0  0  0  0
 45 98  1  0  0  0  0
 46105  1  0  0  0  0
 46106  1  0  0  0  0
 46107  1  0  0  0  0
 47 48  1  0  0  0  0
 47109  1  0  0  0  0
 48 49  1  0  0  0  0
 48110  1  0  0  0  0
 49 51  1  0  0  0  0
 49111  1  0  0  0  0
 50 51  1  0  0  0  0
 50 52  1  1  0  0  0
 50112  1  0  0  0  0
 51113  1  0  0  0  0
 52115  1  0  0  0  0
 52116  1  0  0  0  0
 52117  1  0  0  0  0
 53 54  1  0  0  0  0
 53119  1  0  0  0  0
 54 55  1  0  0  0  0
 54120  1  0  0  0  0
 55 57  1  0  0  0  0
 55121  1  0  0  0  0
 56 57  1  0  0  0  0
 56 58  1  1  0  0  0
 56122  1  0  0  0  0
 57123  1  0  0  0  0
 58125  1  0  0  0  0
 58126  1  0  0  0  0
 59 60  1  0  0  0  0
 60 61  1  0  0  0  0
 60129  1  0  0  0  0
 60130  1  0  0  0  0
M  END
> <PUBCHEM_COMPOUND_CID>
102059426

> <PUBCHEM_COMPOUND_CANONICALIZED>
1

> <PUBCHEM_CACTVS_COMPLEXITY>
1730

> <PUBCHEM_CACTVS_HBOND_ACCEPTOR>
16

> <PUBCHEM_CACTVS_HBOND_DONOR>
8

> <PUBCHEM_CACTVS_ROTATABLE_BOND>
10

> <PUBCHEM_CACTVS_SUBSKEYS>
AAADcfB8PgAAAAAAAAAAAAAAAAAAASAAAAA0aMGCBIAAAEjAAAAAGgAACAAAD1SwgAMCCAAABgCIACDSCAAAAAAgAAAICAEAAAgRFAYIIQAiUAAFoAAPIAPA4PwPgAAAAAAAAADCAAYAADAAAAAAAAAAAA==

> <PUBCHEM_IUPAC_OPENEYE_NAME>
3-[[(2R,3S,4S,5R,6S)-6-[(2R,3R,4S,5S,6R)-3,5-dihydroxy-2-[[(1S,2S,4S,5R,8R,9R,10S,13S,14R,17S,18R)-2-hydroxy-9-(hydroxymethyl)-4,5,9,13,20,20-hexamethyl-24-oxahexacyclo[15.5.2.01,18.04,17.05,14.08,13]tetracos-15-en-10-yl]oxy]-6-methyl-tetrahydropyran-4-yl]oxy-3,4,5-trihydroxy-tetrahydropyran-2-yl]methoxy]-3-oxo-propanoic acid

> <PUBCHEM_IUPAC_CAS_NAME>
3-[[(2R,3S,4S,5R,6S)-6-[[(2R,3R,4S,5S,6R)-3,5-dihydroxy-2-[[(1S,2S,4S,5R,8R,9R,10S,13S,14R,17S,18R)-2-hydroxy-9-(hydroxymethyl)-4,5,9,13,20,20-hexamethyl-24-oxahexacyclo[15.5.2.01,18.04,17.05,14.08,13]tetracos-15-en-10-yl]oxy]-6-methyl-4-oxanyl]oxy]-3,4,5-trihydroxy-2-oxanyl]methoxy]-3-oxopropanoic acid

> <PUBCHEM_IUPAC_NAME_MARKUP>
3-[[(2<I>R</I>,3<I>S</I>,4<I>S</I>,5<I>R</I>,6<I>S</I>)-6-[(2<I>R</I>,3<I>R</I>,4<I>S</I>,5<I>S</I>,6<I>R</I>)-3,5-dihydroxy-2-[[(1<I>S</I>,2<I>S</I>,4<I>S</I>,5<I>R</I>,8<I>R</I>,9<I>R</I>,10<I>S</I>,13<I>S</I>,14<I>R</I>,17<I>S</I>,18<I>R</I>)-2-hydroxy-9-(hydroxymethyl)-4,5,9,13,20,20-hexamethyl-24-oxahexacyclo[15.5.2.0<SUP>1,18</SUP>.0<SUP>4,17</SUP>.0<SUP>5,14</SUP>.0<SUP>8,13</SUP>]tetracos-15-en-10-yl]oxy]-6-methyloxan-4-yl]oxy-3,4,5-trihydroxyoxan-2-yl]methoxy]-3-oxopropanoic acid

> <PUBCHEM_IUPAC_NAME>
3-[[(2R,3S,4S,5R,6S)-6-[(2R,3R,4S,5S,6R)-3,5-dihydroxy-2-[[(1S,2S,4S,5R,8R,9R,10S,13S,14R,17S,18R)-2-hydroxy-9-(hydroxymethyl)-4,5,9,13,20,20-hexamethyl-24-oxahexacyclo[15.5.2.01,18.04,17.05,14.08,13]tetracos-15-en-10-yl]oxy]-6-methyloxan-4-yl]oxy-3,4,5-trihydroxyoxan-2-yl]methoxy]-3-oxopropanoic acid

> <PUBCHEM_IUPAC_SYSTEMATIC_NAME>
3-[[(2R,3S,4S,5R,6S)-6-[(2R,3R,4S,5S,6R)-2-[[(1S,2S,4S,5R,8R,9R,10S,13S,14R,17S,18R)-9-(hydroxymethyl)-4,5,9,13,20,20-hexamethyl-2-oxidanyl-24-oxahexacyclo[15.5.2.01,18.04,17.05,14.08,13]tetracos-15-en-10-yl]oxy]-6-methyl-3,5-bis(oxidanyl)oxan-4-yl]oxy-3,4,5-tris(oxidanyl)oxan-2-yl]methoxy]-3-oxidanylidene-propanoic acid

> <PUBCHEM_IUPAC_TRADITIONAL_NAME>
3-[[(2R,3S,4S,5R,6S)-6-[(2R,3R,4S,5S,6R)-3,5-dihydroxy-2-[[(1S,2S,4S,5R,8R,9R,10S,13S,14R,17S,18R)-2-hydroxy-4,5,9,13,20,20-hexamethyl-9-methylol-24-oxahexacyclo[15.5.2.01,18.04,17.05,14.08,13]tetracos-15-en-10-yl]oxy]-6-methyl-tetrahydropyran-4-yl]oxy-3,4,5-trihydroxy-tetrahydropyran-2-yl]methoxy]-3-keto-propionic acid

> <PUBCHEM_IUPAC_INCHI>
InChI=1S/C45H70O16/c1-22-31(51)36(61-37-34(54)33(53)32(52)23(59-37)19-56-30(50)16-29(48)49)35(55)38(58-22)60-28-10-11-40(4)24(41(28,5)20-46)8-12-42(6)25(40)9-13-45-26-17-39(2,3)14-15-44(26,21-57-45)27(47)18-43(42,45)7/h9,13,22-28,31-38,46-47,51-55H,8,10-12,14-21H2,1-7H3,(H,48,49)/t22-,23-,24-,25-,26-,27+,28+,31+,32-,33+,34-,35-,36+,37+,38+,40+,41+,42-,43+,44-,45+/m1/s1

> <PUBCHEM_IUPAC_INCHIKEY>
ZFGHOZUWNKDBHB-MWPKNAPSSA-N

> <PUBCHEM_XLOGP3_AA>
2.2

> <PUBCHEM_EXACT_MASS>
866.466386

> <PUBCHEM_MOLECULAR_FORMULA>
C45H70O16

> <PUBCHEM_MOLECULAR_WEIGHT>
867

> <PUBCHEM_OPENEYE_CAN_SMILES>
CC1C(C(C(C(O1)OC2CCC3(C(C2(C)CO)CCC4(C3C=CC56C4(CC(C7(C5CC(CC7)(C)C)CO6)O)C)C)C)O)OC8C(C(C(C(O8)COC(=O)CC(=O)O)O)O)O)O

> <PUBCHEM_OPENEYE_ISO_SMILES>
C[C@@H]1[C@@H]([C@@H]([C@H]([C@@H](O1)O[C@H]2CC[C@]3([C@H]([C@]2(C)CO)CC[C@@]4([C@@H]3C=C[C@@]56[C@]4(C[C@@H]([C@@]7([C@H]5CC(CC7)(C)C)CO6)O)C)C)C)O)O[C@H]8[C@@H]([C@H]([C@@H]([C@H](O8)COC(=O)CC(=O)O)O)O)O)O

> <PUBCHEM_CACTVS_TPSA>
251

> <PUBCHEM_MONOISOTOPIC_WEIGHT>
866.466386

> <PUBCHEM_TOTAL_CHARGE>
0

> <PUBCHEM_HEAVY_ATOM_COUNT>
61

> <PUBCHEM_ATOM_DEF_STEREO_COUNT>
21

> <PUBCHEM_ATOM_UDEF_STEREO_COUNT>
0

> <PUBCHEM_BOND_DEF_STEREO_COUNT>
0

> <PUBCHEM_BOND_UDEF_STEREO_COUNT>
0

> <PUBCHEM_ISOTOPIC_ATOM_COUNT>
0

> <PUBCHEM_COMPONENT_COUNT>
1

> <PUBCHEM_CACTVS_TAUTO_COUNT>
-1

> <PUBCHEM_COORDINATE_TYPE>
1
5
255

> <PUBCHEM_BONDANNOTATIONS>
54  10  6
55  11  5
57  12  6
17  33  6
18  31  5
19  37  5
25  2  5
20  62  5
21  30  5
22  63  6
23  40  5
26  67  6
41  3  5
47  3  5
36  46  5
50  52  5
56  58  5
48  6  6
49  7  5
53  7  5
51  8  5

$$$$
