11693717
  -OEChem-09172004042D

134139  0     1  0  0  0  0  0999 V2000
    8.9282   -2.5385    0.0000 O   0  0  0  0  0  0  0  0  0  0  0  0
   10.6603   -2.5385    0.0000 O   0  0  0  0  0  0  0  0  0  0  0  0
    7.1962   -4.5385    0.0000 O   0  0  0  0  0  0  0  0  0  0  0  0
    8.9282   -5.5385    0.0000 O   0  0  0  0  0  0  0  0  0  0  0  0
   10.6603   -4.5385    0.0000 O   0  0  0  0  0  0  0  0  0  0  0  0
    7.1962   -1.5385    0.0000 O   0  0  0  0  0  0  0  0  0  0  0  0
   15.8564    4.4615    0.0000 O   0  0  0  0  0  0  0  0  0  0  0  0
   11.5263   -0.0385    0.0000 O   0  0  0  0  0  0  0  0  0  0  0  0
   19.1603   -4.1365    0.0000 O   0  0  0  0  0  0  0  0  0  0  0  0
   10.3182    0.4012    0.0000 O   0  0  0  0  0  0  0  0  0  0  0  0
   14.9904    2.9615    0.0000 O   0  0  0  0  0  0  0  0  0  0  0  0
   13.1603   -2.4045    0.0000 O   0  0  0  0  0  0  0  0  0  0  0  0
   17.6603   -3.2705    0.0000 O   0  0  0  0  0  0  0  0  0  0  0  0
   13.2583    5.9615    0.0000 O   0  0  0  0  0  0  0  0  0  0  0  0
   14.9904    6.9615    0.0000 O   0  0  0  0  0  0  0  0  0  0  0  0
   17.6603   -6.7346    0.0000 O   0  0  0  0  0  0  0  0  0  0  0  0
   19.6603   -6.7346    0.0000 O   0  0  0  0  0  0  0  0  0  0  0  0
   13.2583    3.9615    0.0000 O   0  0  0  0  0  0  0  0  0  0  0  0
   16.6603   -5.0026    0.0000 O   0  0  0  0  0  0  0  0  0  0  0  0
   11.6603   -3.2705    0.0000 O   0  0  0  0  0  0  0  0  0  0  0  0
   17.5885    5.4615    0.0000 O   0  0  0  0  0  0  0  0  0  0  0  0
   21.1603   -4.1365    0.0000 O   0  0  0  0  0  0  0  0  0  0  0  0
    6.3301   -3.0385    0.0000 O   0  0  0  0  0  0  0  0  0  0  0  0
    8.9282   -4.5385    0.0000 C   0  0  2  0  0  0  0  0  0  0  0  0
    9.7942   -4.0385    0.0000 C   0  0  2  0  0  0  0  0  0  0  0  0
    8.0622   -4.0385    0.0000 C   0  0  1  0  0  0  0  0  0  0  0  0
    9.7942   -3.0385    0.0000 C   0  0  1  0  0  0  0  0  0  0  0  0
    8.0622   -3.0385    0.0000 C   0  0  1  0  0  0  0  0  0  0  0  0
   10.6603   -1.5385    0.0000 C   0  0  2  0  0  0  0  0  0  0  0  0
    9.6602   -1.5385    0.0000 C   0  0  0  0  0  0  0  0  0  0  0  0
    9.1602   -0.6724    0.0000 C   0  0  0  0  0  0  0  0  0  0  0  0
   11.6603   -1.5385    0.0000 C   0  0  0  0  0  0  0  0  0  0  0  0
    7.1962   -2.5385    0.0000 C   0  0  0  0  0  0  0  0  0  0  0  0
   10.6603   -0.5385    0.0000 C   0  0  0  0  0  0  0  0  0  0  0  0
   14.1244    5.4615    0.0000 C   0  0  1  0  0  0  0  0  0  0  0  0
   14.9904    5.9615    0.0000 C   0  0  1  0  0  0  0  0  0  0  0  0
    8.1602   -0.6724    0.0000 C   0  0  0  0  0  0  0  0  0  0  0  0
    8.9866    0.3124    0.0000 C   0  0  0  0  0  0  0  0  0  0  0  0
   18.1603   -5.8686    0.0000 C   0  0  1  0  0  0  0  0  0  0  0  0
   19.1603   -5.8686    0.0000 C   0  0  1  0  0  0  0  0  0  0  0  0
   14.1244    4.4615    0.0000 C   0  0  2  0  0  0  0  0  0  0  0  0
   15.8564    5.4615    0.0000 C   0  0  1  0  0  0  0  0  0  0  0  0
   17.6603   -5.0026    0.0000 C   0  0  2  0  0  0  0  0  0  0  0  0
   19.6603   -5.0026    0.0000 C   0  0  1  0  0  0  0  0  0  0  0  0
   14.9904    3.9615    0.0000 C   0  0  1  0  0  0  0  0  0  0  0  0
   12.1603   -2.4045    0.0000 C   0  0  0  0  0  0  0  0  0  0  0  0
   18.1603   -4.1365    0.0000 C   0  0  1  0  0  0  0  0  0  0  0  0
    6.3301   -4.0385    0.0000 C   0  0  0  0  0  0  0  0  0  0  0  0
   16.7224    5.9615    0.0000 C   0  0  0  0  0  0  0  0  0  0  0  0
   20.6603   -5.0026    0.0000 C   0  0  0  0  0  0  0  0  0  0  0  0
   11.5263    0.9615    0.0000 C   0  0  0  0  0  0  0  0  0  0  0  0
   12.3923    1.4615    0.0000 C   0  0  0  0  0  0  0  0  0  0  0  0
    5.4641   -4.5385    0.0000 C   0  0  0  0  0  0  0  0  0  0  0  0
   13.6603   -3.2705    0.0000 C   0  0  0  0  0  0  0  0  0  0  0  0
   14.1244    2.4615    0.0000 C   0  0  0  0  0  0  0  0  0  0  0  0
   16.6603   -3.2705    0.0000 C   0  0  0  0  0  0  0  0  0  0  0  0
   14.6603   -3.2705    0.0000 C   0  0  0  0  0  0  0  0  0  0  0  0
   12.3923    2.4615    0.0000 C   0  0  0  0  0  0  0  0  0  0  0  0
   13.2583    0.9615    0.0000 C   0  0  0  0  0  0  0  0  0  0  0  0
   13.2583    2.9615    0.0000 C   0  0  0  0  0  0  0  0  0  0  0  0
   14.1244    1.4615    0.0000 C   0  0  0  0  0  0  0  0  0  0  0  0
   16.1603   -2.4045    0.0000 C   0  0  0  0  0  0  0  0  0  0  0  0
   16.1603   -4.1365    0.0000 C   0  0  0  0  0  0  0  0  0  0  0  0
   15.1603   -2.4045    0.0000 C   0  0  0  0  0  0  0  0  0  0  0  0
   15.1603   -4.1365    0.0000 C   0  0  0  0  0  0  0  0  0  0  0  0
    4.5981   -4.0385    0.0000 C   0  0  0  0  0  0  0  0  0  0  0  0
    3.7320   -4.5385    0.0000 C   0  0  0  0  0  0  0  0  0  0  0  0
    2.8660   -4.0385    0.0000 C   0  0  0  0  0  0  0  0  0  0  0  0
    3.7320   -5.5385    0.0000 C   0  0  0  0  0  0  0  0  0  0  0  0
    2.0000   -4.5385    0.0000 C   0  0  0  0  0  0  0  0  0  0  0  0
    2.8660   -6.0385    0.0000 C   0  0  0  0  0  0  0  0  0  0  0  0
    2.0000   -5.5385    0.0000 C   0  0  0  0  0  0  0  0  0  0  0  0
    8.3913   -4.8485    0.0000 H   0  0  0  0  0  0  0  0  0  0  0  0
    9.7942   -4.6585    0.0000 H   0  0  0  0  0  0  0  0  0  0  0  0
    8.0622   -4.6585    0.0000 H   0  0  0  0  0  0  0  0  0  0  0  0
    9.7942   -2.4185    0.0000 H   0  0  0  0  0  0  0  0  0  0  0  0
    8.0622   -2.4185    0.0000 H   0  0  0  0  0  0  0  0  0  0  0  0
    9.0776   -1.7505    0.0000 H   0  0  0  0  0  0  0  0  0  0  0  0
    9.7679   -2.1490    0.0000 H   0  0  0  0  0  0  0  0  0  0  0  0
    9.7429   -0.4604    0.0000 H   0  0  0  0  0  0  0  0  0  0  0  0
   12.2429   -1.3264    0.0000 H   0  0  0  0  0  0  0  0  0  0  0  0
   11.5526   -0.9279    0.0000 H   0  0  0  0  0  0  0  0  0  0  0  0
    6.5856   -2.4308    0.0000 H   0  0  0  0  0  0  0  0  0  0  0  0
    6.9841   -3.1211    0.0000 H   0  0  0  0  0  0  0  0  0  0  0  0
    9.4651   -5.8485    0.0000 H   0  0  0  0  0  0  0  0  0  0  0  0
   11.1972   -4.2285    0.0000 H   0  0  0  0  0  0  0  0  0  0  0  0
   14.1244    6.0815    0.0000 H   0  0  0  0  0  0  0  0  0  0  0  0
   15.5273    6.2715    0.0000 H   0  0  0  0  0  0  0  0  0  0  0  0
    8.1602   -0.0524    0.0000 H   0  0  0  0  0  0  0  0  0  0  0  0
    7.5402   -0.6724    0.0000 H   0  0  0  0  0  0  0  0  0  0  0  0
    8.1602   -1.2924    0.0000 H   0  0  0  0  0  0  0  0  0  0  0  0
    9.5972    0.4200    0.0000 H   0  0  0  0  0  0  0  0  0  0  0  0
    8.8789    0.9230    0.0000 H   0  0  0  0  0  0  0  0  0  0  0  0
    8.3760    0.2047    0.0000 H   0  0  0  0  0  0  0  0  0  0  0  0
   18.4703   -6.4055    0.0000 H   0  0  0  0  0  0  0  0  0  0  0  0
   19.7803   -5.8686    0.0000 H   0  0  0  0  0  0  0  0  0  0  0  0
   13.5874    4.7715    0.0000 H   0  0  0  0  0  0  0  0  0  0  0  0
   16.3933    5.1515    0.0000 H   0  0  0  0  0  0  0  0  0  0  0  0
   17.3503   -5.5395    0.0000 H   0  0  0  0  0  0  0  0  0  0  0  0
   19.9703   -4.4656    0.0000 H   0  0  0  0  0  0  0  0  0  0  0  0
   14.4534    3.6515    0.0000 H   0  0  0  0  0  0  0  0  0  0  0  0
   17.5403   -4.1365    0.0000 H   0  0  0  0  0  0  0  0  0  0  0  0
    6.6592   -1.2285    0.0000 H   0  0  0  0  0  0  0  0  0  0  0  0
   17.1210    6.4365    0.0000 H   0  0  0  0  0  0  0  0  0  0  0  0
   16.3239    6.4365    0.0000 H   0  0  0  0  0  0  0  0  0  0  0  0
   20.5526   -5.6131    0.0000 H   0  0  0  0  0  0  0  0  0  0  0  0
   21.2429   -5.2146    0.0000 H   0  0  0  0  0  0  0  0  0  0  0  0
   11.3142    1.5442    0.0000 H   0  0  0  0  0  0  0  0  0  0  0  0
   10.9157    0.8539    0.0000 H   0  0  0  0  0  0  0  0  0  0  0  0
   13.2583    6.5815    0.0000 H   0  0  0  0  0  0  0  0  0  0  0  0
   15.5273    7.2715    0.0000 H   0  0  0  0  0  0  0  0  0  0  0  0
   17.9703   -7.2715    0.0000 H   0  0  0  0  0  0  0  0  0  0  0  0
   20.2803   -6.7346    0.0000 H   0  0  0  0  0  0  0  0  0  0  0  0
   12.7214    4.2715    0.0000 H   0  0  0  0  0  0  0  0  0  0  0  0
   16.3503   -5.5395    0.0000 H   0  0  0  0  0  0  0  0  0  0  0  0
    5.4641   -5.1585    0.0000 H   0  0  0  0  0  0  0  0  0  0  0  0
   13.0776   -3.4826    0.0000 H   0  0  0  0  0  0  0  0  0  0  0  0
   13.7679   -3.8811    0.0000 H   0  0  0  0  0  0  0  0  0  0  0  0
   11.8554    2.7715    0.0000 H   0  0  0  0  0  0  0  0  0  0  0  0
   13.2583    0.3415    0.0000 H   0  0  0  0  0  0  0  0  0  0  0  0
   13.2583    3.5815    0.0000 H   0  0  0  0  0  0  0  0  0  0  0  0
   14.6613    1.1515    0.0000 H   0  0  0  0  0  0  0  0  0  0  0  0
   18.1254    5.7715    0.0000 H   0  0  0  0  0  0  0  0  0  0  0  0
   21.7803   -4.1365    0.0000 H   0  0  0  0  0  0  0  0  0  0  0  0
   16.4703   -1.8676    0.0000 H   0  0  0  0  0  0  0  0  0  0  0  0
   16.4703   -4.6735    0.0000 H   0  0  0  0  0  0  0  0  0  0  0  0
   14.8503   -1.8676    0.0000 H   0  0  0  0  0  0  0  0  0  0  0  0
   14.8503   -4.6735    0.0000 H   0  0  0  0  0  0  0  0  0  0  0  0
    4.5981   -3.4185    0.0000 H   0  0  0  0  0  0  0  0  0  0  0  0
    2.8660   -3.4185    0.0000 H   0  0  0  0  0  0  0  0  0  0  0  0
    4.2690   -5.8485    0.0000 H   0  0  0  0  0  0  0  0  0  0  0  0
    1.4631   -4.2285    0.0000 H   0  0  0  0  0  0  0  0  0  0  0  0
    2.8660   -6.6585    0.0000 H   0  0  0  0  0  0  0  0  0  0  0  0
    1.4631   -5.8485    0.0000 H   0  0  0  0  0  0  0  0  0  0  0  0
  1 27  1  0  0  0  0
  1 28  1  0  0  0  0
 27  2  1  1  0  0  0
 29  2  1  1  0  0  0
 26  3  1  6  0  0  0
  3 48  1  0  0  0  0
 24  4  1  1  0  0  0
  4 85  1  0  0  0  0
 25  5  1  6  0  0  0
  5 86  1  0  0  0  0
  6 33  1  0  0  0  0
  6103  1  0  0  0  0
  7 42  1  0  0  0  0
  7 45  1  0  0  0  0
  8 34  1  0  0  0  0
  8 51  1  0  0  0  0
  9 44  1  0  0  0  0
  9 47  1  0  0  0  0
 10 34  2  0  0  0  0
 45 11  1  1  0  0  0
 11 55  1  0  0  0  0
 12 46  1  0  0  0  0
 12 54  1  0  0  0  0
 47 13  1  6  0  0  0
 13 56  1  0  0  0  0
 35 14  1  1  0  0  0
 14110  1  0  0  0  0
 36 15  1  6  0  0  0
 15111  1  0  0  0  0
 39 16  1  6  0  0  0
 16112  1  0  0  0  0
 40 17  1  1  0  0  0
 17113  1  0  0  0  0
 41 18  1  6  0  0  0
 18114  1  0  0  0  0
 43 19  1  1  0  0  0
 19115  1  0  0  0  0
 20 46  2  0  0  0  0
 21 49  1  0  0  0  0
 21123  1  0  0  0  0
 22 50  1  0  0  0  0
 22124  1  0  0  0  0
 23 48  2  0  0  0  0
 24 25  1  0  0  0  0
 24 26  1  0  0  0  0
 24 73  1  0  0  0  0
 25 27  1  0  0  0  0
 25 74  1  0  0  0  0
 26 28  1  0  0  0  0
 26 75  1  0  0  0  0
 27 76  1  0  0  0  0
 28 33  1  1  0  0  0
 28 77  1  0  0  0  0
 29 30  1  0  0  0  0
 29 32  1  0  0  0  0
 29 34  1  0  0  0  0
 30 31  1  0  0  0  0
 30 78  1  0  0  0  0
 30 79  1  0  0  0  0
 31 37  1  0  0  0  0
 31 38  1  0  0  0  0
 31 80  1  0  0  0  0
 32 46  1  0  0  0  0
 32 81  1  0  0  0  0
 32 82  1  0  0  0  0
 33 83  1  0  0  0  0
 33 84  1  0  0  0  0
 35 36  1  0  0  0  0
 35 41  1  0  0  0  0
 35 87  1  0  0  0  0
 36 42  1  0  0  0  0
 36 88  1  0  0  0  0
 37 89  1  0  0  0  0
 37 90  1  0  0  0  0
 37 91  1  0  0  0  0
 38 92  1  0  0  0  0
 38 93  1  0  0  0  0
 38 94  1  0  0  0  0
 39 40  1  0  0  0  0
 39 43  1  0  0  0  0
 39 95  1  0  0  0  0
 40 44  1  0  0  0  0
 40 96  1  0  0  0  0
 41 45  1  0  0  0  0
 41 97  1  0  0  0  0
 42 49  1  1  0  0  0
 42 98  1  0  0  0  0
 43 47  1  0  0  0  0
 43 99  1  0  0  0  0
 44 50  1  6  0  0  0
 44100  1  0  0  0  0
 45101  1  0  0  0  0
 47102  1  0  0  0  0
 48 53  1  0  0  0  0
 49104  1  0  0  0  0
 49105  1  0  0  0  0
 50106  1  0  0  0  0
 50107  1  0  0  0  0
 51 52  1  0  0  0  0
 51108  1  0  0  0  0
 51109  1  0  0  0  0
 52 58  2  0  0  0  0
 52 59  1  0  0  0  0
 53 66  2  0  0  0  0
 53116  1  0  0  0  0
 54 57  1  0  0  0  0
 54117  1  0  0  0  0
 54118  1  0  0  0  0
 55 60  2  0  0  0  0
 55 61  1  0  0  0  0
 56 62  2  0  0  0  0
 56 63  1  0  0  0  0
 57 64  2  0  0  0  0
 57 65  1  0  0  0  0
 58 60  1  0  0  0  0
 58119  1  0  0  0  0
 59 61  2  0  0  0  0
 59120  1  0  0  0  0
 60121  1  0  0  0  0
 61122  1  0  0  0  0
 62 64  1  0  0  0  0
 62125  1  0  0  0  0
 63 65  2  0  0  0  0
 63126  1  0  0  0  0
 64127  1  0  0  0  0
 65128  1  0  0  0  0
 66 67  1  0  0  0  0
 66129  1  0  0  0  0
 67 68  2  0  0  0  0
 67 69  1  0  0  0  0
 68 70  1  0  0  0  0
 68130  1  0  0  0  0
 69 71  2  0  0  0  0
 69131  1  0  0  0  0
 70 72  2  0  0  0  0
 70132  1  0  0  0  0
 71 72  1  0  0  0  0
 71133  1  0  0  0  0
 72134  1  0  0  0  0
M  END
> <PUBCHEM_COMPOUND_CID>
11693717

> <PUBCHEM_COMPOUND_CANONICALIZED>
1

> <PUBCHEM_CACTVS_COMPLEXITY>
1700

> <PUBCHEM_CACTVS_HBOND_ACCEPTOR>
23

> <PUBCHEM_CACTVS_HBOND_DONOR>
11

> <PUBCHEM_CACTVS_ROTATABLE_BOND>
24

> <PUBCHEM_CACTVS_SUBSKEYS>
AAADcfB8PgAAAAAAAAAAAAAAAAAAAAAAAAA0aNECAAAAAAABUAAAGgAACAAADVSwmAMyDoAABgCIAiDSCAICCAAgIAAIiAFGCMgdNjaEMR6ieCCl4BEPqYfL6DwOIAAAAAAAAABAAAAAAAAAAAAAAAAAAA==

> <PUBCHEM_IUPAC_OPENEYE_NAME>
bis[[4-[(2S,3R,4S,5S,6R)-3,4,5-trihydroxy-6-(hydroxymethyl)tetrahydropyran-2-yl]oxyphenyl]methyl] (2R)-2-[(2S,3R,4R,5S,6R)-3,4-dihydroxy-6-(hydroxymethyl)-5-[(E)-3-phenylprop-2-enoyl]oxy-tetrahydropyran-2-yl]oxy-2-isobutyl-butanedioate

> <PUBCHEM_IUPAC_CAS_NAME>
(2R)-2-[[(2S,3R,4R,5S,6R)-3,4-dihydroxy-6-(hydroxymethyl)-5-[(E)-1-oxo-3-phenylprop-2-enoxy]-2-oxanyl]oxy]-2-(2-methylpropyl)butanedioic acid bis[[4-[[(2S,3R,4S,5S,6R)-3,4,5-trihydroxy-6-(hydroxymethyl)-2-oxanyl]oxy]phenyl]methyl] ester

> <PUBCHEM_IUPAC_NAME_MARKUP>
bis[[4-[(2<I>S</I>,3<I>R</I>,4<I>S</I>,5<I>S</I>,6<I>R</I>)-3,4,5-trihydroxy-6-(hydroxymethyl)oxan-2-yl]oxyphenyl]methyl] (2<I>R</I>)-2-[(2<I>S</I>,3<I>R</I>,4<I>R</I>,5<I>S</I>,6<I>R</I>)-3,4-dihydroxy-6-(hydroxymethyl)-5-[(<I>E</I>)-3-phenylprop-2-enoyl]oxyoxan-2-yl]oxy-2-(2-methylpropyl)butanedioate

> <PUBCHEM_IUPAC_NAME>
bis[[4-[(2S,3R,4S,5S,6R)-3,4,5-trihydroxy-6-(hydroxymethyl)oxan-2-yl]oxyphenyl]methyl] (2R)-2-[(2S,3R,4R,5S,6R)-3,4-dihydroxy-6-(hydroxymethyl)-5-[(E)-3-phenylprop-2-enoyl]oxyoxan-2-yl]oxy-2-(2-methylpropyl)butanedioate

> <PUBCHEM_IUPAC_SYSTEMATIC_NAME>
bis[[4-[(2S,3R,4S,5S,6R)-6-(hydroxymethyl)-3,4,5-tris(oxidanyl)oxan-2-yl]oxyphenyl]methyl] (2R)-2-[(2S,3R,4R,5S,6R)-6-(hydroxymethyl)-3,4-bis(oxidanyl)-5-[(E)-3-phenylprop-2-enoyl]oxy-oxan-2-yl]oxy-2-(2-methylpropyl)butanedioate

> <PUBCHEM_IUPAC_TRADITIONAL_NAME>
(2R)-2-[(2S,3R,4R,5S,6R)-3,4-dihydroxy-6-methylol-5-[(E)-3-phenylacryloyl]oxy-tetrahydropyran-2-yl]oxy-2-isobutyl-succinic acid bis[4-[(2S,3R,4S,5S,6R)-3,4,5-trihydroxy-6-methylol-tetrahydropyran-2-yl]oxybenzyl] ester

> <PUBCHEM_IUPAC_INCHI>
InChI=1S/C49H62O23/c1-25(2)18-49(48(63)65-24-28-10-15-30(16-11-28)67-46-42(61)39(58)37(56)32(21-51)69-46,72-47-43(62)40(59)44(33(22-52)70-47)71-34(53)17-12-26-6-4-3-5-7-26)19-35(54)64-23-27-8-13-29(14-9-27)66-45-41(60)38(57)36(55)31(20-50)68-45/h3-17,25,31-33,36-47,50-52,55-62H,18-24H2,1-2H3/b17-12+/t31-,32-,33-,36-,37-,38+,39+,40-,41-,42-,43-,44-,45-,46-,47+,49-/m1/s1

> <PUBCHEM_IUPAC_INCHIKEY>
KEGAFEYNHDLHCA-IKJIXKLRSA-N

> <PUBCHEM_XLOGP3_AA>
0

> <PUBCHEM_EXACT_MASS>
1018.368188

> <PUBCHEM_MOLECULAR_FORMULA>
C49H62O23

> <PUBCHEM_MOLECULAR_WEIGHT>
1019

> <PUBCHEM_OPENEYE_CAN_SMILES>
CC(C)CC(CC(=O)OCC1=CC=C(C=C1)OC2C(C(C(C(O2)CO)O)O)O)(C(=O)OCC3=CC=C(C=C3)OC4C(C(C(C(O4)CO)O)O)O)OC5C(C(C(C(O5)CO)OC(=O)C=CC6=CC=CC=C6)O)O

> <PUBCHEM_OPENEYE_ISO_SMILES>
CC(C)C[C@@](CC(=O)OCC1=CC=C(C=C1)O[C@H]2[C@@H]([C@H]([C@@H]([C@H](O2)CO)O)O)O)(C(=O)OCC3=CC=C(C=C3)O[C@H]4[C@@H]([C@H]([C@@H]([C@H](O4)CO)O)O)O)O[C@H]5[C@@H]([C@H]([C@@H]([C@H](O5)CO)OC(=O)/C=C/C6=CC=CC=C6)O)O

> <PUBCHEM_CACTVS_TPSA>
357

> <PUBCHEM_MONOISOTOPIC_WEIGHT>
1018.368188

> <PUBCHEM_TOTAL_CHARGE>
0

> <PUBCHEM_HEAVY_ATOM_COUNT>
72

> <PUBCHEM_ATOM_DEF_STEREO_COUNT>
16

> <PUBCHEM_ATOM_UDEF_STEREO_COUNT>
0

> <PUBCHEM_BOND_DEF_STEREO_COUNT>
1

> <PUBCHEM_BOND_UDEF_STEREO_COUNT>
0

> <PUBCHEM_ISOTOPIC_ATOM_COUNT>
0

> <PUBCHEM_COMPONENT_COUNT>
1

> <PUBCHEM_CACTVS_TAUTO_COUNT>
-1

> <PUBCHEM_COORDINATE_TYPE>
1
5
255

> <PUBCHEM_BONDANNOTATIONS>
45  11  5
47  13  6
35  14  5
36  15  6
39  16  6
40  17  5
41  18  6
43  19  5
27  2  5
29  2  5
28  33  5
26  3  6
24  4  5
42  49  5
44  50  6
25  5  6
52  58  8
52  59  8
55  60  8
55  61  8
56  62  8
56  63  8
57  64  8
57  65  8
58  60  8
59  61  8
62  64  8
63  65  8
67  68  8
67  69  8
68  70  8
69  71  8
70  72  8
71  72  8

$$$$
