11586164
  -OEChem-09172004062D

139144  0     1  0  0  0  0  0999 V2000
    6.3301   -2.0950    0.0000 O   0  0  0  0  0  0  0  0  0  0  0  0
    8.0622   -2.0950    0.0000 O   0  0  0  0  0  0  0  0  0  0  0  0
    6.3301   -5.0950    0.0000 O   0  0  0  0  0  0  0  0  0  0  0  0
    8.0622   -4.0950    0.0000 O   0  0  0  0  0  0  0  0  0  0  0  0
    4.5981   -4.0950    0.0000 O   0  0  0  0  0  0  0  0  0  0  0  0
    4.5981   -1.0950    0.0000 O   0  0  0  0  0  0  0  0  0  0  0  0
    8.9282    0.4050    0.0000 O   0  0  0  0  0  0  0  0  0  0  0  0
   13.2583    4.9050    0.0000 O   0  0  0  0  0  0  0  0  0  0  0  0
   16.5622   -3.6931    0.0000 O   0  0  0  0  0  0  0  0  0  0  0  0
    7.7202    0.8447    0.0000 O   0  0  0  0  0  0  0  0  0  0  0  0
   10.5622   -1.9610    0.0000 O   0  0  0  0  0  0  0  0  0  0  0  0
   12.3923    3.4050    0.0000 O   0  0  0  0  0  0  0  0  0  0  0  0
   15.0622   -2.8270    0.0000 O   0  0  0  0  0  0  0  0  0  0  0  0
   10.6603    6.4050    0.0000 O   0  0  0  0  0  0  0  0  0  0  0  0
   12.3923    7.4050    0.0000 O   0  0  0  0  0  0  0  0  0  0  0  0
   15.0622   -6.2912    0.0000 O   0  0  0  0  0  0  0  0  0  0  0  0
   17.0622   -6.2912    0.0000 O   0  0  0  0  0  0  0  0  0  0  0  0
   10.6603    4.4050    0.0000 O   0  0  0  0  0  0  0  0  0  0  0  0
   14.0622   -4.5591    0.0000 O   0  0  0  0  0  0  0  0  0  0  0  0
    9.0622   -2.8270    0.0000 O   0  0  0  0  0  0  0  0  0  0  0  0
    4.5981   -5.0950    0.0000 O   0  0  0  0  0  0  0  0  0  0  0  0
   14.9904    5.9050    0.0000 O   0  0  0  0  0  0  0  0  0  0  0  0
   18.5622   -3.6931    0.0000 O   0  0  0  0  0  0  0  0  0  0  0  0
    2.8660   -1.0950    0.0000 O   0  0  0  0  0  0  0  0  0  0  0  0
    6.3301   -4.0950    0.0000 C   0  0  2  0  0  0  0  0  0  0  0  0
    7.1962   -3.5950    0.0000 C   0  0  2  0  0  0  0  0  0  0  0  0
    7.1962   -2.5950    0.0000 C   0  0  1  0  0  0  0  0  0  0  0  0
    5.4641   -3.5950    0.0000 C   0  0  1  0  0  0  0  0  0  0  0  0
    5.4641   -2.5950    0.0000 C   0  0  1  0  0  0  0  0  0  0  0  0
    8.0622   -1.0950    0.0000 C   0  0  2  0  0  0  0  0  0  0  0  0
    7.0622   -1.0950    0.0000 C   0  0  0  0  0  0  0  0  0  0  0  0
    4.5981   -2.0950    0.0000 C   0  0  0  0  0  0  0  0  0  0  0  0
    6.5622   -0.2290    0.0000 C   0  0  0  0  0  0  0  0  0  0  0  0
    9.0622   -1.0950    0.0000 C   0  0  0  0  0  0  0  0  0  0  0  0
    8.0622   -0.0950    0.0000 C   0  0  0  0  0  0  0  0  0  0  0  0
    5.5622   -0.2290    0.0000 C   0  0  0  0  0  0  0  0  0  0  0  0
    6.3885    0.7558    0.0000 C   0  0  0  0  0  0  0  0  0  0  0  0
   11.5263    5.9050    0.0000 C   0  0  1  0  0  0  0  0  0  0  0  0
   12.3923    6.4050    0.0000 C   0  0  1  0  0  0  0  0  0  0  0  0
   15.5622   -5.4251    0.0000 C   0  0  1  0  0  0  0  0  0  0  0  0
   16.5622   -5.4251    0.0000 C   0  0  1  0  0  0  0  0  0  0  0  0
   11.5263    4.9050    0.0000 C   0  0  2  0  0  0  0  0  0  0  0  0
   13.2583    5.9050    0.0000 C   0  0  1  0  0  0  0  0  0  0  0  0
    9.5622   -1.9610    0.0000 C   0  0  0  0  0  0  0  0  0  0  0  0
   15.0622   -4.5591    0.0000 C   0  0  2  0  0  0  0  0  0  0  0  0
   17.0622   -4.5591    0.0000 C   0  0  1  0  0  0  0  0  0  0  0  0
   12.3923    4.4050    0.0000 C   0  0  1  0  0  0  0  0  0  0  0  0
   15.5622   -3.6931    0.0000 C   0  0  1  0  0  0  0  0  0  0  0  0
    5.4641   -5.5950    0.0000 C   0  0  0  0  0  0  0  0  0  0  0  0
   14.1244    6.4050    0.0000 C   0  0  0  0  0  0  0  0  0  0  0  0
   18.0622   -4.5591    0.0000 C   0  0  0  0  0  0  0  0  0  0  0  0
    8.9282    1.4050    0.0000 C   0  0  0  0  0  0  0  0  0  0  0  0
    3.7320   -0.5950    0.0000 C   0  0  0  0  0  0  0  0  0  0  0  0
    5.4641   -6.5950    0.0000 C   0  0  0  0  0  0  0  0  0  0  0  0
    9.7942    1.9050    0.0000 C   0  0  0  0  0  0  0  0  0  0  0  0
   11.0622   -2.8270    0.0000 C   0  0  0  0  0  0  0  0  0  0  0  0
   11.5263    2.9050    0.0000 C   0  0  0  0  0  0  0  0  0  0  0  0
   14.0622   -2.8270    0.0000 C   0  0  0  0  0  0  0  0  0  0  0  0
   12.0622   -2.8270    0.0000 C   0  0  0  0  0  0  0  0  0  0  0  0
    9.7942    2.9050    0.0000 C   0  0  0  0  0  0  0  0  0  0  0  0
   10.6603    1.4050    0.0000 C   0  0  0  0  0  0  0  0  0  0  0  0
    3.7320    0.4050    0.0000 C   0  0  0  0  0  0  0  0  0  0  0  0
   10.6603    3.4050    0.0000 C   0  0  0  0  0  0  0  0  0  0  0  0
   11.5263    1.9050    0.0000 C   0  0  0  0  0  0  0  0  0  0  0  0
    4.5981   -7.0950    0.0000 C   0  0  0  0  0  0  0  0  0  0  0  0
   13.5622   -1.9610    0.0000 C   0  0  0  0  0  0  0  0  0  0  0  0
   13.5622   -3.6931    0.0000 C   0  0  0  0  0  0  0  0  0  0  0  0
   12.5622   -1.9610    0.0000 C   0  0  0  0  0  0  0  0  0  0  0  0
   12.5622   -3.6931    0.0000 C   0  0  0  0  0  0  0  0  0  0  0  0
    3.7320   -6.5950    0.0000 C   0  0  0  0  0  0  0  0  0  0  0  0
    3.7320   -5.5950    0.0000 C   0  0  0  0  0  0  0  0  0  0  0  0
    2.8660   -7.0950    0.0000 C   0  0  0  0  0  0  0  0  0  0  0  0
    2.8660   -5.0950    0.0000 C   0  0  0  0  0  0  0  0  0  0  0  0
    2.0000   -6.5950    0.0000 C   0  0  0  0  0  0  0  0  0  0  0  0
    2.0000   -5.5950    0.0000 C   0  0  0  0  0  0  0  0  0  0  0  0
    5.7932   -4.4050    0.0000 H   0  0  0  0  0  0  0  0  0  0  0  0
    7.1962   -4.2150    0.0000 H   0  0  0  0  0  0  0  0  0  0  0  0
    7.7331   -2.9050    0.0000 H   0  0  0  0  0  0  0  0  0  0  0  0
    4.9272   -3.2850    0.0000 H   0  0  0  0  0  0  0  0  0  0  0  0
    5.4641   -1.9750    0.0000 H   0  0  0  0  0  0  0  0  0  0  0  0
    6.4796   -1.3070    0.0000 H   0  0  0  0  0  0  0  0  0  0  0  0
    7.1698   -1.7056    0.0000 H   0  0  0  0  0  0  0  0  0  0  0  0
    3.9875   -1.9873    0.0000 H   0  0  0  0  0  0  0  0  0  0  0  0
    4.3860   -2.6776    0.0000 H   0  0  0  0  0  0  0  0  0  0  0  0
    7.1448   -0.0169    0.0000 H   0  0  0  0  0  0  0  0  0  0  0  0
    9.6448   -0.8829    0.0000 H   0  0  0  0  0  0  0  0  0  0  0  0
    8.9545   -0.4844    0.0000 H   0  0  0  0  0  0  0  0  0  0  0  0
    8.0622   -4.7150    0.0000 H   0  0  0  0  0  0  0  0  0  0  0  0
    4.0611   -3.7850    0.0000 H   0  0  0  0  0  0  0  0  0  0  0  0
    5.5622    0.3910    0.0000 H   0  0  0  0  0  0  0  0  0  0  0  0
    4.9422   -0.2290    0.0000 H   0  0  0  0  0  0  0  0  0  0  0  0
    5.5622   -0.8490    0.0000 H   0  0  0  0  0  0  0  0  0  0  0  0
    6.9991    0.8635    0.0000 H   0  0  0  0  0  0  0  0  0  0  0  0
    6.2809    1.3664    0.0000 H   0  0  0  0  0  0  0  0  0  0  0  0
    5.7780    0.6482    0.0000 H   0  0  0  0  0  0  0  0  0  0  0  0
   11.5263    6.5250    0.0000 H   0  0  0  0  0  0  0  0  0  0  0  0
   11.8554    6.7150    0.0000 H   0  0  0  0  0  0  0  0  0  0  0  0
   14.9422   -5.4251    0.0000 H   0  0  0  0  0  0  0  0  0  0  0  0
   17.1822   -5.4251    0.0000 H   0  0  0  0  0  0  0  0  0  0  0  0
   10.9893    5.2150    0.0000 H   0  0  0  0  0  0  0  0  0  0  0  0
   13.7953    5.5950    0.0000 H   0  0  0  0  0  0  0  0  0  0  0  0
   15.3722   -4.0222    0.0000 H   0  0  0  0  0  0  0  0  0  0  0  0
   17.3722   -4.0222    0.0000 H   0  0  0  0  0  0  0  0  0  0  0  0
   11.8554    4.0950    0.0000 H   0  0  0  0  0  0  0  0  0  0  0  0
   14.9422   -3.6931    0.0000 H   0  0  0  0  0  0  0  0  0  0  0  0
   14.5229    6.8800    0.0000 H   0  0  0  0  0  0  0  0  0  0  0  0
   13.7258    6.8800    0.0000 H   0  0  0  0  0  0  0  0  0  0  0  0
   17.9545   -5.1697    0.0000 H   0  0  0  0  0  0  0  0  0  0  0  0
   18.6448   -4.7711    0.0000 H   0  0  0  0  0  0  0  0  0  0  0  0
    8.7162    1.9876    0.0000 H   0  0  0  0  0  0  0  0  0  0  0  0
    8.3176    1.2973    0.0000 H   0  0  0  0  0  0  0  0  0  0  0  0
   10.6603    7.0250    0.0000 H   0  0  0  0  0  0  0  0  0  0  0  0
   12.9292    7.7150    0.0000 H   0  0  0  0  0  0  0  0  0  0  0  0
   15.3722   -6.8281    0.0000 H   0  0  0  0  0  0  0  0  0  0  0  0
   17.6822   -6.2912    0.0000 H   0  0  0  0  0  0  0  0  0  0  0  0
   10.1233    4.7150    0.0000 H   0  0  0  0  0  0  0  0  0  0  0  0
    6.0010   -6.9050    0.0000 H   0  0  0  0  0  0  0  0  0  0  0  0
   13.7522   -5.0960    0.0000 H   0  0  0  0  0  0  0  0  0  0  0  0
   10.4796   -3.0391    0.0000 H   0  0  0  0  0  0  0  0  0  0  0  0
   11.1698   -3.4376    0.0000 H   0  0  0  0  0  0  0  0  0  0  0  0
    9.2573    3.2150    0.0000 H   0  0  0  0  0  0  0  0  0  0  0  0
   10.6603    0.7850    0.0000 H   0  0  0  0  0  0  0  0  0  0  0  0
    4.3520    0.4050    0.0000 H   0  0  0  0  0  0  0  0  0  0  0  0
    3.7320    1.0250    0.0000 H   0  0  0  0  0  0  0  0  0  0  0  0
    3.1120    0.4050    0.0000 H   0  0  0  0  0  0  0  0  0  0  0  0
   10.6603    4.0250    0.0000 H   0  0  0  0  0  0  0  0  0  0  0  0
   12.0632    1.5950    0.0000 H   0  0  0  0  0  0  0  0  0  0  0  0
   15.5273    6.2150    0.0000 H   0  0  0  0  0  0  0  0  0  0  0  0
   19.1822   -3.6931    0.0000 H   0  0  0  0  0  0  0  0  0  0  0  0
   13.8722   -1.4241    0.0000 H   0  0  0  0  0  0  0  0  0  0  0  0
   13.8722   -4.2300    0.0000 H   0  0  0  0  0  0  0  0  0  0  0  0
    4.5981   -7.7150    0.0000 H   0  0  0  0  0  0  0  0  0  0  0  0
   12.2522   -1.4241    0.0000 H   0  0  0  0  0  0  0  0  0  0  0  0
   12.2522   -4.2300    0.0000 H   0  0  0  0  0  0  0  0  0  0  0  0
    4.2690   -5.2850    0.0000 H   0  0  0  0  0  0  0  0  0  0  0  0
    2.8660   -7.7150    0.0000 H   0  0  0  0  0  0  0  0  0  0  0  0
    2.8660   -4.4750    0.0000 H   0  0  0  0  0  0  0  0  0  0  0  0
    1.4631   -6.9050    0.0000 H   0  0  0  0  0  0  0  0  0  0  0  0
    1.4631   -5.2850    0.0000 H   0  0  0  0  0  0  0  0  0  0  0  0
  1 27  1  0  0  0  0
  1 29  1  0  0  0  0
 27  2  1  1  0  0  0
 30  2  1  1  0  0  0
 25  3  1  1  0  0  0
  3 49  1  0  0  0  0
 26  4  1  6  0  0  0
  4 88  1  0  0  0  0
 28  5  1  6  0  0  0
  5 89  1  0  0  0  0
  6 32  1  0  0  0  0
  6 53  1  0  0  0  0
  7 35  1  0  0  0  0
  7 52  1  0  0  0  0
  8 43  1  0  0  0  0
  8 47  1  0  0  0  0
  9 46  1  0  0  0  0
  9 48  1  0  0  0  0
 10 35  2  0  0  0  0
 11 44  1  0  0  0  0
 11 56  1  0  0  0  0
 47 12  1  1  0  0  0
 12 57  1  0  0  0  0
 48 13  1  6  0  0  0
 13 58  1  0  0  0  0
 38 14  1  1  0  0  0
 14112  1  0  0  0  0
 39 15  1  6  0  0  0
 15113  1  0  0  0  0
 40 16  1  6  0  0  0
 16114  1  0  0  0  0
 41 17  1  1  0  0  0
 17115  1  0  0  0  0
 42 18  1  6  0  0  0
 18116  1  0  0  0  0
 45 19  1  1  0  0  0
 19118  1  0  0  0  0
 20 44  2  0  0  0  0
 21 49  2  0  0  0  0
 22 50  1  0  0  0  0
 22128  1  0  0  0  0
 23 51  1  0  0  0  0
 23129  1  0  0  0  0
 24 53  2  0  0  0  0
 25 26  1  0  0  0  0
 25 28  1  0  0  0  0
 25 76  1  0  0  0  0
 26 27  1  0  0  0  0
 26 77  1  0  0  0  0
 27 78  1  0  0  0  0
 28 29  1  0  0  0  0
 28 79  1  0  0  0  0
 29 32  1  1  0  0  0
 29 80  1  0  0  0  0
 30 31  1  0  0  0  0
 30 34  1  0  0  0  0
 30 35  1  0  0  0  0
 31 33  1  0  0  0  0
 31 81  1  0  0  0  0
 31 82  1  0  0  0  0
 32 83  1  0  0  0  0
 32 84  1  0  0  0  0
 33 36  1  0  0  0  0
 33 37  1  0  0  0  0
 33 85  1  0  0  0  0
 34 44  1  0  0  0  0
 34 86  1  0  0  0  0
 34 87  1  0  0  0  0
 36 90  1  0  0  0  0
 36 91  1  0  0  0  0
 36 92  1  0  0  0  0
 37 93  1  0  0  0  0
 37 94  1  0  0  0  0
 37 95  1  0  0  0  0
 38 39  1  0  0  0  0
 38 42  1  0  0  0  0
 38 96  1  0  0  0  0
 39 43  1  0  0  0  0
 39 97  1  0  0  0  0
 40 41  1  0  0  0  0
 40 45  1  0  0  0  0
 40 98  1  0  0  0  0
 41 46  1  0  0  0  0
 41 99  1  0  0  0  0
 42 47  1  0  0  0  0
 42100  1  0  0  0  0
 43 50  1  1  0  0  0
 43101  1  0  0  0  0
 45 48  1  0  0  0  0
 45102  1  0  0  0  0
 46 51  1  6  0  0  0
 46103  1  0  0  0  0
 47104  1  0  0  0  0
 48105  1  0  0  0  0
 49 54  1  0  0  0  0
 50106  1  0  0  0  0
 50107  1  0  0  0  0
 51108  1  0  0  0  0
 51109  1  0  0  0  0
 52 55  1  0  0  0  0
 52110  1  0  0  0  0
 52111  1  0  0  0  0
 53 62  1  0  0  0  0
 54 65  2  0  0  0  0
 54117  1  0  0  0  0
 55 60  2  0  0  0  0
 55 61  1  0  0  0  0
 56 59  1  0  0  0  0
 56119  1  0  0  0  0
 56120  1  0  0  0  0
 57 63  2  0  0  0  0
 57 64  1  0  0  0  0
 58 66  2  0  0  0  0
 58 67  1  0  0  0  0
 59 68  2  0  0  0  0
 59 69  1  0  0  0  0
 60 63  1  0  0  0  0
 60121  1  0  0  0  0
 61 64  2  0  0  0  0
 61122  1  0  0  0  0
 62123  1  0  0  0  0
 62124  1  0  0  0  0
 62125  1  0  0  0  0
 63126  1  0  0  0  0
 64127  1  0  0  0  0
 65 70  1  0  0  0  0
 65132  1  0  0  0  0
 66 68  1  0  0  0  0
 66130  1  0  0  0  0
 67 69  2  0  0  0  0
 67131  1  0  0  0  0
 68133  1  0  0  0  0
 69134  1  0  0  0  0
 70 71  2  0  0  0  0
 70 72  1  0  0  0  0
 71 73  1  0  0  0  0
 71135  1  0  0  0  0
 72 74  2  0  0  0  0
 72136  1  0  0  0  0
 73 75  2  0  0  0  0
 73137  1  0  0  0  0
 74 75  1  0  0  0  0
 74138  1  0  0  0  0
 75139  1  0  0  0  0
M  END
> <PUBCHEM_COMPOUND_CID>
11586164

> <PUBCHEM_COMPOUND_CANONICALIZED>
1

> <PUBCHEM_CACTVS_COMPLEXITY>
1820

> <PUBCHEM_CACTVS_HBOND_ACCEPTOR>
24

> <PUBCHEM_CACTVS_HBOND_DONOR>
10

> <PUBCHEM_CACTVS_ROTATABLE_BOND>
26

> <PUBCHEM_CACTVS_SUBSKEYS>
AAADcfB8PgAAAAAAAAAAAAAAAAAAAAAAAAA0aNECAAAAAAABUAAAGgAACAAADVSwmAMyDoAABgCIAiDSCAICCAAgIAAIiAFGCMgdNjaEMR6ieCCl4BEPqYfL6DwOIAAAAAAAAABAAAAAAAAAAAAAAAAAAA==

> <PUBCHEM_IUPAC_OPENEYE_NAME>
bis[[4-[(2S,3R,4S,5S,6R)-3,4,5-trihydroxy-6-(hydroxymethyl)tetrahydropyran-2-yl]oxyphenyl]methyl] (2R)-2-[(2S,3R,4S,5R,6R)-6-(acetoxymethyl)-3,5-dihydroxy-4-[(Z)-3-phenylprop-2-enoyl]oxy-tetrahydropyran-2-yl]oxy-2-isobutyl-butanedioate

> <PUBCHEM_IUPAC_CAS_NAME>
(2R)-2-[[(2S,3R,4S,5R,6R)-6-(acetyloxymethyl)-3,5-dihydroxy-4-[(Z)-1-oxo-3-phenylprop-2-enoxy]-2-oxanyl]oxy]-2-(2-methylpropyl)butanedioic acid bis[[4-[[(2S,3R,4S,5S,6R)-3,4,5-trihydroxy-6-(hydroxymethyl)-2-oxanyl]oxy]phenyl]methyl] ester

> <PUBCHEM_IUPAC_NAME_MARKUP>
bis[[4-[(2<I>S</I>,3<I>R</I>,4<I>S</I>,5<I>S</I>,6<I>R</I>)-3,4,5-trihydroxy-6-(hydroxymethyl)oxan-2-yl]oxyphenyl]methyl] (2<I>R</I>)-2-[(2<I>S</I>,3<I>R</I>,4<I>S</I>,5<I>R</I>,6<I>R</I>)-6-(acetyloxymethyl)-3,5-dihydroxy-4-[(<I>Z</I>)-3-phenylprop-2-enoyl]oxyoxan-2-yl]oxy-2-(2-methylpropyl)butanedioate

> <PUBCHEM_IUPAC_NAME>
bis[[4-[(2S,3R,4S,5S,6R)-3,4,5-trihydroxy-6-(hydroxymethyl)oxan-2-yl]oxyphenyl]methyl] (2R)-2-[(2S,3R,4S,5R,6R)-6-(acetyloxymethyl)-3,5-dihydroxy-4-[(Z)-3-phenylprop-2-enoyl]oxyoxan-2-yl]oxy-2-(2-methylpropyl)butanedioate

> <PUBCHEM_IUPAC_SYSTEMATIC_NAME>
bis[[4-[(2S,3R,4S,5S,6R)-6-(hydroxymethyl)-3,4,5-tris(oxidanyl)oxan-2-yl]oxyphenyl]methyl] (2R)-2-[(2S,3R,4S,5R,6R)-6-(acetyloxymethyl)-3,5-bis(oxidanyl)-4-[(Z)-3-phenylprop-2-enoyl]oxy-oxan-2-yl]oxy-2-(2-methylpropyl)butanedioate

> <PUBCHEM_IUPAC_TRADITIONAL_NAME>
(2R)-2-[(2S,3R,4S,5R,6R)-6-(acetoxymethyl)-3,5-dihydroxy-4-[(Z)-3-phenylacryloyl]oxy-tetrahydropyran-2-yl]oxy-2-isobutyl-succinic acid bis[4-[(2S,3R,4S,5S,6R)-3,4,5-trihydroxy-6-methylol-tetrahydropyran-2-yl]oxybenzyl] ester

> <PUBCHEM_IUPAC_INCHI>
InChI=1S/C51H64O24/c1-26(2)19-51(50(65)68-24-30-11-16-32(17-12-30)70-48-44(63)42(61)39(58)34(22-53)72-48,20-37(56)67-23-29-9-14-31(15-10-29)69-47-43(62)41(60)38(57)33(21-52)71-47)75-49-45(64)46(40(59)35(73-49)25-66-27(3)54)74-36(55)18-13-28-7-5-4-6-8-28/h4-18,26,33-35,38-49,52-53,57-64H,19-25H2,1-3H3/b18-13-/t33-,34-,35-,38-,39-,40-,41+,42+,43-,44-,45-,46+,47-,48-,49+,51-/m1/s1

> <PUBCHEM_IUPAC_INCHIKEY>
VNORMJNLBQYATD-VIAIADOOSA-N

> <PUBCHEM_XLOGP3_AA>
0.6

> <PUBCHEM_EXACT_MASS>
1060.378753

> <PUBCHEM_MOLECULAR_FORMULA>
C51H64O24

> <PUBCHEM_MOLECULAR_WEIGHT>
1061

> <PUBCHEM_OPENEYE_CAN_SMILES>
CC(C)CC(CC(=O)OCC1=CC=C(C=C1)OC2C(C(C(C(O2)CO)O)O)O)(C(=O)OCC3=CC=C(C=C3)OC4C(C(C(C(O4)CO)O)O)O)OC5C(C(C(C(O5)COC(=O)C)O)OC(=O)C=CC6=CC=CC=C6)O

> <PUBCHEM_OPENEYE_ISO_SMILES>
CC(C)C[C@@](CC(=O)OCC1=CC=C(C=C1)O[C@H]2[C@@H]([C@H]([C@@H]([C@H](O2)CO)O)O)O)(C(=O)OCC3=CC=C(C=C3)O[C@H]4[C@@H]([C@H]([C@@H]([C@H](O4)CO)O)O)O)O[C@H]5[C@@H]([C@H]([C@@H]([C@H](O5)COC(=O)C)O)OC(=O)/C=C\C6=CC=CC=C6)O

> <PUBCHEM_CACTVS_TPSA>
363

> <PUBCHEM_MONOISOTOPIC_WEIGHT>
1060.378753

> <PUBCHEM_TOTAL_CHARGE>
0

> <PUBCHEM_HEAVY_ATOM_COUNT>
75

> <PUBCHEM_ATOM_DEF_STEREO_COUNT>
16

> <PUBCHEM_ATOM_UDEF_STEREO_COUNT>
0

> <PUBCHEM_BOND_DEF_STEREO_COUNT>
1

> <PUBCHEM_BOND_UDEF_STEREO_COUNT>
0

> <PUBCHEM_ISOTOPIC_ATOM_COUNT>
0

> <PUBCHEM_COMPONENT_COUNT>
1

> <PUBCHEM_CACTVS_TAUTO_COUNT>
-1

> <PUBCHEM_COORDINATE_TYPE>
1
5
255

> <PUBCHEM_BONDANNOTATIONS>
47  12  5
48  13  6
38  14  5
39  15  6
40  16  6
41  17  5
42  18  6
45  19  5
27  2  5
30  2  5
29  32  5
25  3  5
26  4  6
43  50  5
46  51  6
28  5  6
55  60  8
55  61  8
57  63  8
57  64  8
58  66  8
58  67  8
59  68  8
59  69  8
60  63  8
61  64  8
66  68  8
67  69  8
70  71  8
70  72  8
71  73  8
72  74  8
73  75  8
74  75  8

$$$$
