146156527
  -OEChem-09092014552D

 70 76  0     1  0  0  0  0  0999 V2000
    5.4798   -1.7756    0.0000 O   0  0  0  0  0  0  0  0  0  0  0  0
    3.3913    1.8951    0.0000 O   0  0  0  0  0  0  0  0  0  0  0  0
    8.1744   -2.3172    0.0000 O   0  0  0  0  0  0  0  0  0  0  0  0
    6.1958    2.0702    0.0000 O   0  0  0  0  0  0  0  0  0  0  0  0
    2.8602   -1.2929    0.0000 O   0  0  0  0  0  0  0  0  0  0  0  0
    4.6420   -2.3034    0.0000 O   0  0  0  0  0  0  0  0  0  0  0  0
    7.2685   -3.8380    0.0000 O   0  0  0  0  0  0  0  0  0  0  0  0
    6.1084    3.8380    0.0000 O   0  0  0  0  0  0  0  0  0  0  0  0
   10.6053   -0.4109    0.0000 O   0  0  0  0  0  0  0  0  0  0  0  0
    3.7320   -2.7896    0.0000 O   0  0  0  0  0  0  0  0  0  0  0  0
    6.3904   -1.2688    0.0000 C   0  0  3  0  0  0  0  0  0  0  0  0
    5.5243   -0.7688    0.0000 C   0  0  1  0  0  0  0  0  0  0  0  0
    5.5243    0.2312    0.0000 C   0  0  3  0  0  0  0  0  0  0  0  0
    4.6304    0.7659    0.0000 C   0  0  2  0  0  0  0  0  0  0  0  0
    7.2564   -0.7688    0.0000 C   0  0  1  0  0  0  0  0  0  0  0  0
    6.3743   -2.3103    0.0000 C   0  0  3  0  0  0  0  0  0  0  0  0
    3.7243    0.2520    0.0000 C   0  0  3  0  0  0  0  0  0  0  0  0
    6.3904    0.7312    0.0000 C   0  0  0  0  0  0  0  0  0  0  0  0
    7.2564    0.2312    0.0000 C   0  0  0  0  0  0  0  0  0  0  0  0
    4.4203    1.7798    0.0000 C   0  0  3  0  0  0  0  0  0  0  0  0
    4.6304   -1.3034    0.0000 C   0  0  0  0  0  0  0  0  0  0  0  0
    3.7243   -0.7896    0.0000 C   0  0  3  0  0  0  0  0  0  0  0  0
    2.9620    0.9528    0.0000 C   0  0  0  0  0  0  0  0  0  0  0  0
    8.1664   -1.2756    0.0000 C   0  0  3  0  0  0  0  0  0  0  0  0
    6.1744   -1.8945    0.0000 C   0  0  0  0  0  0  0  0  0  0  0  0
    5.6898    0.9684    0.0000 C   0  0  0  0  0  0  0  0  0  0  0  0
    8.1224   -0.2688    0.0000 C   0  0  0  0  0  0  0  0  0  0  0  0
    7.2723   -2.8380    0.0000 C   0  0  0  0  0  0  0  0  0  0  0  0
    4.7430    2.8090    0.0000 C   0  0  0  0  0  0  0  0  0  0  0  0
    2.0523    1.3681    0.0000 C   0  0  0  0  0  0  0  0  0  0  0  0
    2.2859    0.2160    0.0000 C   0  0  0  0  0  0  0  0  0  0  0  0
    9.0266   -0.7656    0.0000 C   0  0  0  0  0  0  0  0  0  0  0  0
    5.6378    2.9557    0.0000 C   0  0  0  0  0  0  0  0  0  0  0  0
    9.1196    0.2300    0.0000 C   0  0  0  0  0  0  0  0  0  0  0  0
    9.9448   -1.1618    0.0000 C   0  0  0  0  0  0  0  0  0  0  0  0
    2.8641   -2.2929    0.0000 C   0  0  0  0  0  0  0  0  0  0  0  0
   10.0953    0.4492    0.0000 C   0  0  0  0  0  0  0  0  0  0  0  0
    2.0000   -2.7962    0.0000 C   0  0  0  0  0  0  0  0  0  0  0  0
    6.0613   -0.0788    0.0000 H   0  0  0  0  0  0  0  0  0  0  0  0
    6.0582   -2.8436    0.0000 H   0  0  0  0  0  0  0  0  0  0  0  0
    3.1566    0.0028    0.0000 H   0  0  0  0  0  0  0  0  0  0  0  0
    6.7889    1.2062    0.0000 H   0  0  0  0  0  0  0  0  0  0  0  0
    5.9918    1.2062    0.0000 H   0  0  0  0  0  0  0  0  0  0  0  0
    7.8670    0.1236    0.0000 H   0  0  0  0  0  0  0  0  0  0  0  0
    7.4684    0.8138    0.0000 H   0  0  0  0  0  0  0  0  0  0  0  0
    4.0817    2.2992    0.0000 H   0  0  0  0  0  0  0  0  0  0  0  0
    3.7279   -1.4096    0.0000 H   0  0  0  0  0  0  0  0  0  0  0  0
    8.7063   -1.5804    0.0000 H   0  0  0  0  0  0  0  0  0  0  0  0
    5.6376   -2.2046    0.0000 H   0  0  0  0  0  0  0  0  0  0  0  0
    6.4845   -2.4314    0.0000 H   0  0  0  0  0  0  0  0  0  0  0  0
    6.7114   -1.5845    0.0000 H   0  0  0  0  0  0  0  0  0  0  0  0
    5.6789    0.3485    0.0000 H   0  0  0  0  0  0  0  0  0  0  0  0
    6.2943    0.8307    0.0000 H   0  0  0  0  0  0  0  0  0  0  0  0
    8.4324   -0.8057    0.0000 H   0  0  0  0  0  0  0  0  0  0  0  0
    8.6594    0.0412    0.0000 H   0  0  0  0  0  0  0  0  0  0  0  0
    7.8124    0.2682    0.0000 H   0  0  0  0  0  0  0  0  0  0  0  0
    4.7386    3.4290    0.0000 H   0  0  0  0  0  0  0  0  0  0  0  0
    4.1298    2.9006    0.0000 H   0  0  0  0  0  0  0  0  0  0  0  0
    2.3099    1.9321    0.0000 H   0  0  0  0  0  0  0  0  0  0  0  0
    1.4884    1.6256    0.0000 H   0  0  0  0  0  0  0  0  0  0  0  0
    1.7948    0.8041    0.0000 H   0  0  0  0  0  0  0  0  0  0  0  0
    1.8291    0.6352    0.0000 H   0  0  0  0  0  0  0  0  0  0  0  0
    1.8667   -0.2408    0.0000 H   0  0  0  0  0  0  0  0  0  0  0  0
    2.7427   -0.2032    0.0000 H   0  0  0  0  0  0  0  0  0  0  0  0
    8.6541    0.6395    0.0000 H   0  0  0  0  0  0  0  0  0  0  0  0
   10.0807   -1.7667    0.0000 H   0  0  0  0  0  0  0  0  0  0  0  0
   10.3409    1.0185    0.0000 H   0  0  0  0  0  0  0  0  0  0  0  0
    1.6879   -2.2605    0.0000 H   0  0  0  0  0  0  0  0  0  0  0  0
    1.4643   -3.1083    0.0000 H   0  0  0  0  0  0  0  0  0  0  0  0
    2.3121   -3.3320    0.0000 H   0  0  0  0  0  0  0  0  0  0  0  0
  1 11  1  0  0  0  0
  1 16  1  0  0  0  0
  2 20  1  0  0  0  0
  2 23  1  0  0  0  0
  3 24  1  0  0  0  0
  3 28  1  0  0  0  0
  4 26  1  0  0  0  0
  4 33  1  0  0  0  0
  5 22  1  0  0  0  0
  5 36  1  0  0  0  0
  6 21  2  0  0  0  0
  7 28  2  0  0  0  0
  8 33  2  0  0  0  0
  9 35  1  0  0  0  0
  9 37  1  0  0  0  0
 10 36  2  0  0  0  0
 11 12  1  0  0  0  0
 11 15  1  0  0  0  0
 11 16  1  0  0  0  0
 12 13  1  0  0  0  0
 12 21  1  0  0  0  0
 12 25  1  1  0  0  0
 13 14  1  0  0  0  0
 13 18  1  0  0  0  0
 13 39  1  0  0  0  0
 14 17  1  0  0  0  0
 14 20  1  0  0  0  0
 14 26  1  1  0  0  0
 15 19  1  0  0  0  0
 15 24  1  0  0  0  0
 15 27  1  6  0  0  0
 16 28  1  0  0  0  0
 16 40  1  0  0  0  0
 17 22  1  0  0  0  0
 17 23  1  0  0  0  0
 17 41  1  0  0  0  0
 18 19  1  0  0  0  0
 18 42  1  0  0  0  0
 18 43  1  0  0  0  0
 19 44  1  0  0  0  0
 19 45  1  0  0  0  0
 20 29  1  0  0  0  0
 20 46  1  0  0  0  0
 21 22  1  0  0  0  0
 22 47  1  0  0  0  0
 23 30  1  0  0  0  0
 23 31  1  0  0  0  0
 24 32  1  0  0  0  0
 24 48  1  0  0  0  0
 25 49  1  0  0  0  0
 25 50  1  0  0  0  0
 25 51  1  0  0  0  0
 26 52  1  0  0  0  0
 26 53  1  0  0  0  0
 27 54  1  0  0  0  0
 27 55  1  0  0  0  0
 27 56  1  0  0  0  0
 29 33  1  0  0  0  0
 29 57  1  0  0  0  0
 29 58  1  0  0  0  0
 30 59  1  0  0  0  0
 30 60  1  0  0  0  0
 30 61  1  0  0  0  0
 31 62  1  0  0  0  0
 31 63  1  0  0  0  0
 31 64  1  0  0  0  0
 32 34  1  0  0  0  0
 32 35  2  0  0  0  0
 34 37  2  0  0  0  0
 34 65  1  0  0  0  0
 35 66  1  0  0  0  0
 36 38  1  0  0  0  0
 37 67  1  0  0  0  0
 38 68  1  0  0  0  0
 38 69  1  0  0  0  0
 38 70  1  0  0  0  0
M  END
> <PUBCHEM_COMPOUND_CID>
146156527

> <PUBCHEM_COMPOUND_CANONICALIZED>
1

> <PUBCHEM_CACTVS_COMPLEXITY>
1150

> <PUBCHEM_CACTVS_HBOND_ACCEPTOR>
10

> <PUBCHEM_CACTVS_HBOND_DONOR>
0

> <PUBCHEM_CACTVS_ROTATABLE_BOND>
3

> <PUBCHEM_CACTVS_SUBSKEYS>
AAADcfB4PAAAAAAAAAAAAAAAEgAAASJAAAA0aIEABIAAAEjRgAAAGgAAAAAAD1SgmAIyDIAABECIAqjSiAICCAAkIAAIiAFGCMgNJxYENQ6CGSCl4BEKKYPK7vzvgAAAAAAAAADAAAYAADAAAAAAAAAAAA==

> <PUBCHEM_IUPAC_OPENEYE_NAME>
[(2R,13R,20S)-19-(3-furyl)-9,9,13,20-tetramethyl-5,12,17-trioxo-4,8,15,18-tetraoxahexacyclo[11.9.0.02,7.02,10.014,16.014,20]docosan-11-yl] acetate

> <PUBCHEM_IUPAC_CAS_NAME>
acetic acid [(2R,13R,20S)-19-(3-furanyl)-9,9,13,20-tetramethyl-5,12,17-trioxo-4,8,15,18-tetraoxahexacyclo[11.9.0.02,7.02,10.014,16.014,20]docosan-11-yl] ester

> <PUBCHEM_IUPAC_NAME_MARKUP>
[(2<I>R</I>,13<I>R</I>,20<I>S</I>)-19-(furan-3-yl)-9,9,13,20-tetramethyl-5,12,17-trioxo-4,8,15,18-tetraoxahexacyclo[11.9.0.0<SUP>2,7</SUP>.0<SUP>2,10</SUP>.0<SUP>14,16</SUP>.0<SUP>14,20</SUP>]docosan-11-yl] acetate

> <PUBCHEM_IUPAC_NAME>
[(2R,13R,20S)-19-(furan-3-yl)-9,9,13,20-tetramethyl-5,12,17-trioxo-4,8,15,18-tetraoxahexacyclo[11.9.0.02,7.02,10.014,16.014,20]docosan-11-yl] acetate

> <PUBCHEM_IUPAC_SYSTEMATIC_NAME>
[(2R,13R,20S)-19-(furan-3-yl)-9,9,13,20-tetramethyl-5,12,17-tris(oxidanylidene)-4,8,15,18-tetraoxahexacyclo[11.9.0.02,7.02,10.014,16.014,20]docosan-11-yl] ethanoate

> <PUBCHEM_IUPAC_TRADITIONAL_NAME>
acetic acid [(2R,13R,20S)-19-(3-furyl)-5,12,17-triketo-9,9,13,20-tetramethyl-4,8,15,18-tetraoxahexacyclo[11.9.0.02,7.02,10.014,16.014,20]docosan-11-yl] ester

> <PUBCHEM_IUPAC_INCHI>
InChI=1S/C28H32O10/c1-13(29)35-18-19-24(2,3)37-16-10-17(30)34-12-27(16,19)15-6-8-25(4)21(14-7-9-33-11-14)36-23(32)22-28(25,38-22)26(15,5)20(18)31/h7,9,11,15-16,18-19,21-22H,6,8,10,12H2,1-5H3/t15?,16?,18?,19?,21?,22?,25-,26-,27-,28?/m0/s1

> <PUBCHEM_IUPAC_INCHIKEY>
IHOHGVDNDQTZGL-YCQINRHASA-N

> <PUBCHEM_XLOGP3_AA>
1.8

> <PUBCHEM_EXACT_MASS>
528.199547

> <PUBCHEM_MOLECULAR_FORMULA>
C28H32O10

> <PUBCHEM_MOLECULAR_WEIGHT>
528.5

> <PUBCHEM_OPENEYE_CAN_SMILES>
CC(=O)OC1C2C(OC3C2(COC(=O)C3)C4CCC5(C(OC(=O)C6C5(C4(C1=O)C)O6)C7=COC=C7)C)(C)C

> <PUBCHEM_OPENEYE_ISO_SMILES>
CC(=O)OC1C2[C@@]3(COC(=O)CC3OC2(C)C)C4CC[C@]5(C(OC(=O)C6C5([C@@]4(C1=O)C)O6)C7=COC=C7)C

> <PUBCHEM_CACTVS_TPSA>
131

> <PUBCHEM_MONOISOTOPIC_WEIGHT>
528.199547

> <PUBCHEM_TOTAL_CHARGE>
0

> <PUBCHEM_HEAVY_ATOM_COUNT>
38

> <PUBCHEM_ATOM_DEF_STEREO_COUNT>
3

> <PUBCHEM_ATOM_UDEF_STEREO_COUNT>
7

> <PUBCHEM_BOND_DEF_STEREO_COUNT>
0

> <PUBCHEM_BOND_UDEF_STEREO_COUNT>
0

> <PUBCHEM_ISOTOPIC_ATOM_COUNT>
0

> <PUBCHEM_COMPONENT_COUNT>
1

> <PUBCHEM_CACTVS_TAUTO_COUNT>
-1

> <PUBCHEM_COORDINATE_TYPE>
1
5
255

> <PUBCHEM_BONDANNOTATIONS>
11  16  3
12  25  5
13  18  3
14  26  5
15  27  6
16  28  3
17  23  3
20  29  3
24  32  3
32  34  8
32  35  8
34  37  8
22  5  3
9  35  8
9  37  8

$$$$
