536536
  -OEChem-11232013572D

 65 69  0     1  0  0  0  0  0999 V2000
    4.3981    0.5354    0.0000 O   0  0  0  0  0  0  0  0  0  0  0  0
    4.4142   -1.5061    0.0000 O   0  0  0  0  0  0  0  0  0  0  0  0
    4.0532   -0.0609    0.0000 O   0  0  0  0  0  0  0  0  0  0  0  0
    3.9651   -1.0171    0.0000 O   0  0  0  0  0  0  0  0  0  0  0  0
    2.6141   -1.5131    0.0000 O   0  0  0  0  0  0  0  0  0  0  0  0
    2.7170    0.1839    0.0000 O   0  0  0  0  0  0  0  0  0  0  0  0
    5.2641    1.0354    0.0000 C   0  0  3  0  0  0  0  0  0  0  0  0
    6.1302    1.5354    0.0000 C   0  0  3  0  0  0  0  0  0  0  0  0
    5.2639    2.0358    0.0000 C   0  0  0  0  0  0  0  0  0  0  0  0
    4.3981    1.5354    0.0000 C   0  0  3  0  0  0  0  0  0  0  0  0
    6.9962    1.0354    0.0000 C   0  0  0  0  0  0  0  0  0  0  0  0
    6.1302   -0.4646    0.0000 C   0  0  3  0  0  0  0  0  0  0  0  0
    6.9962    0.0354    0.0000 C   0  0  3  0  0  0  0  0  0  0  0  0
    5.2641    0.0354    0.0000 C   0  0  3  0  0  0  0  0  0  0  0  0
    4.9874    0.2957    0.0000 C   0  0  0  0  0  0  0  0  0  0  0  0
    5.7639    2.9018    0.0000 C   0  0  0  0  0  0  0  0  0  0  0  0
    4.3979    2.5359    0.0000 C   0  0  0  0  0  0  0  0  0  0  0  0
    4.3981   -0.4646    0.0000 C   0  0  3  0  0  0  0  0  0  0  0  0
    3.5321    1.0354    0.0000 C   0  0  0  0  0  0  0  0  0  0  0  0
    4.9594   -0.9108    0.0000 C   0  0  3  0  0  0  0  0  0  0  0  0
    6.4349   -1.4108    0.0000 C   0  0  0  0  0  0  0  0  0  0  0  0
    3.5321    0.0354    0.0000 C   0  0  0  0  0  0  0  0  0  0  0  0
    7.8622   -0.4646    0.0000 C   0  0  0  0  0  0  0  0  0  0  0  0
    5.6971   -1.7445    0.0000 C   0  0  0  0  0  0  0  0  0  0  0  0
    2.6221   -0.4715    0.0000 C   0  0  0  0  0  0  0  0  0  0  0  0
    5.4892   -2.7226    0.0000 C   0  0  0  0  0  0  0  0  0  0  0  0
    3.5161   -2.0339    0.0000 C   0  0  0  0  0  0  0  0  0  0  0  0
    3.0195   -2.9018    0.0000 C   0  0  0  0  0  0  0  0  0  0  0  0
    4.0195   -2.8980    0.0000 C   0  0  0  0  0  0  0  0  0  0  0  0
    2.9944   -0.7769    0.0000 C   0  0  0  0  0  0  0  0  0  0  0  0
    2.0000   -0.8830    0.0000 C   0  0  0  0  0  0  0  0  0  0  0  0
    5.2641    0.4154    0.0000 H   0  0  0  0  0  0  0  0  0  0  0  0
    6.4402    2.0723    0.0000 H   0  0  0  0  0  0  0  0  0  0  0  0
    4.3981    2.1554    0.0000 H   0  0  0  0  0  0  0  0  0  0  0  0
    7.6068    0.9277    0.0000 H   0  0  0  0  0  0  0  0  0  0  0  0
    7.2082    1.6180    0.0000 H   0  0  0  0  0  0  0  0  0  0  0  0
    6.9962   -0.5846    0.0000 H   0  0  0  0  0  0  0  0  0  0  0  0
    6.3008    2.5918    0.0000 H   0  0  0  0  0  0  0  0  0  0  0  0
    6.0739    3.4388    0.0000 H   0  0  0  0  0  0  0  0  0  0  0  0
    5.2269    3.2118    0.0000 H   0  0  0  0  0  0  0  0  0  0  0  0
    4.7080    3.0728    0.0000 H   0  0  0  0  0  0  0  0  0  0  0  0
    3.8610    2.8460    0.0000 H   0  0  0  0  0  0  0  0  0  0  0  0
    4.0879    1.9990    0.0000 H   0  0  0  0  0  0  0  0  0  0  0  0
    4.9374   -0.7705    0.0000 H   0  0  0  0  0  0  0  0  0  0  0  0
    2.9951    1.3454    0.0000 H   0  0  0  0  0  0  0  0  0  0  0  0
    4.7352   -1.4889    0.0000 H   0  0  0  0  0  0  0  0  0  0  0  0
    7.0017   -1.6621    0.0000 H   0  0  0  0  0  0  0  0  0  0  0  0
    7.5522   -1.0016    0.0000 H   0  0  0  0  0  0  0  0  0  0  0  0
    8.3991   -0.7746    0.0000 H   0  0  0  0  0  0  0  0  0  0  0  0
    8.1722    0.0723    0.0000 H   0  0  0  0  0  0  0  0  0  0  0  0
    4.0881    1.0723    0.0000 H   0  0  0  0  0  0  0  0  0  0  0  0
    2.4175    0.1138    0.0000 H   0  0  0  0  0  0  0  0  0  0  0  0
    2.0104   -0.5729    0.0000 H   0  0  0  0  0  0  0  0  0  0  0  0
    4.8828   -2.5937    0.0000 H   0  0  0  0  0  0  0  0  0  0  0  0
    5.3603   -3.3291    0.0000 H   0  0  0  0  0  0  0  0  0  0  0  0
    6.0957   -2.8515    0.0000 H   0  0  0  0  0  0  0  0  0  0  0  0
    2.4813   -2.5939    0.0000 H   0  0  0  0  0  0  0  0  0  0  0  0
    2.7115   -3.4400    0.0000 H   0  0  0  0  0  0  0  0  0  0  0  0
    3.5576   -3.2098    0.0000 H   0  0  0  0  0  0  0  0  0  0  0  0
    3.4837   -3.2100    0.0000 H   0  0  0  0  0  0  0  0  0  0  0  0
    4.3315   -3.4337    0.0000 H   0  0  0  0  0  0  0  0  0  0  0  0
    4.5552   -2.5859    0.0000 H   0  0  0  0  0  0  0  0  0  0  0  0
    1.9342   -0.2665    0.0000 H   0  0  0  0  0  0  0  0  0  0  0  0
    1.3835   -0.9489    0.0000 H   0  0  0  0  0  0  0  0  0  0  0  0
    2.0658   -1.4995    0.0000 H   0  0  0  0  0  0  0  0  0  0  0  0
  1 14  1  0  0  0  0
  1 51  1  0  0  0  0
  2 18  1  0  0  0  0
  2 27  1  0  0  0  0
  3 15  2  0  0  0  0
  4 20  1  0  0  0  0
  4 30  1  0  0  0  0
  5 25  1  0  0  0  0
  5 27  1  0  0  0  0
  6 30  2  0  0  0  0
  7  8  1  0  0  0  0
  7  9  1  0  0  0  0
  7 10  1  0  0  0  0
  7 32  1  0  0  0  0
  8  9  1  0  0  0  0
  8 11  1  0  0  0  0
  8 33  1  0  0  0  0
  9 16  1  0  0  0  0
  9 17  1  0  0  0  0
 10 15  1  0  0  0  0
 10 19  1  0  0  0  0
 10 34  1  0  0  0  0
 11 13  1  0  0  0  0
 11 35  1  0  0  0  0
 11 36  1  0  0  0  0
 12 13  1  0  0  0  0
 12 14  1  0  0  0  0
 12 15  1  0  0  0  0
 12 21  1  0  0  0  0
 13 23  1  0  0  0  0
 13 37  1  0  0  0  0
 14 18  1  0  0  0  0
 14 20  1  0  0  0  0
 16 38  1  0  0  0  0
 16 39  1  0  0  0  0
 16 40  1  0  0  0  0
 17 41  1  0  0  0  0
 17 42  1  0  0  0  0
 17 43  1  0  0  0  0
 18 22  1  0  0  0  0
 18 44  1  0  0  0  0
 19 22  2  0  0  0  0
 19 45  1  0  0  0  0
 20 24  1  0  0  0  0
 20 46  1  0  0  0  0
 21 24  2  0  0  0  0
 21 47  1  0  0  0  0
 22 25  1  0  0  0  0
 23 48  1  0  0  0  0
 23 49  1  0  0  0  0
 23 50  1  0  0  0  0
 24 26  1  0  0  0  0
 25 52  1  0  0  0  0
 25 53  1  0  0  0  0
 26 54  1  0  0  0  0
 26 55  1  0  0  0  0
 26 56  1  0  0  0  0
 27 28  1  0  0  0  0
 27 29  1  0  0  0  0
 28 57  1  0  0  0  0
 28 58  1  0  0  0  0
 28 59  1  0  0  0  0
 29 60  1  0  0  0  0
 29 61  1  0  0  0  0
 29 62  1  0  0  0  0
 30 31  1  0  0  0  0
 31 63  1  0  0  0  0
 31 64  1  0  0  0  0
 31 65  1  0  0  0  0
M  END
> <PUBCHEM_COMPOUND_CID>
536536

> <PUBCHEM_COMPOUND_CANONICALIZED>
1

> <PUBCHEM_CACTVS_COMPLEXITY>
928

> <PUBCHEM_CACTVS_HBOND_ACCEPTOR>
6

> <PUBCHEM_CACTVS_HBOND_DONOR>
1

> <PUBCHEM_CACTVS_ROTATABLE_BOND>
2

> <PUBCHEM_CACTVS_SUBSKEYS>
AAADcfB4OAAAAAAAAAAAAAAAGAAAAQAAAAAkAAAABggYAACAAAAAGgAACAAAD1SggAICCAAABgCIAqDSCAAAAAAgAAAACAEAAAgRBBYAIQAiUAAF4AAPIAPK6PyPgAAAAAAAAAAAAAAAAAAAAAAAAAAAAA==

> <PUBCHEM_IUPAC_OPENEYE_NAME>
(5-hydroxy-3,8,8,15,15,18-hexamethyl-19-oxo-7,9-dioxapentacyclo[11.5.1.01,5.06,11.014,16]nonadeca-2,11-dien-4-yl) acetate

> <PUBCHEM_IUPAC_CAS_NAME>
acetic acid (5-hydroxy-3,8,8,15,15,18-hexamethyl-19-oxo-7,9-dioxapentacyclo[11.5.1.01,5.06,11.014,16]nonadeca-2,11-dien-4-yl) ester

> <PUBCHEM_IUPAC_NAME_MARKUP>
(5-hydroxy-3,8,8,15,15,18-hexamethyl-19-oxo-7,9-dioxapentacyclo[11.5.1.0<SUP>1,5</SUP>.0<SUP>6,11</SUP>.0<SUP>14,16</SUP>]nonadeca-2,11-dien-4-yl) acetate

> <PUBCHEM_IUPAC_NAME>
(5-hydroxy-3,8,8,15,15,18-hexamethyl-19-oxo-7,9-dioxapentacyclo[11.5.1.01,5.06,11.014,16]nonadeca-2,11-dien-4-yl) acetate

> <PUBCHEM_IUPAC_SYSTEMATIC_NAME>
(3,8,8,15,15,18-hexamethyl-5-oxidanyl-19-oxidanylidene-7,9-dioxapentacyclo[11.5.1.01,5.06,11.014,16]nonadeca-2,11-dien-4-yl) ethanoate

> <PUBCHEM_IUPAC_TRADITIONAL_NAME>
acetic acid (5-hydroxy-19-keto-3,8,8,15,15,18-hexamethyl-7,9-dioxapentacyclo[11.5.1.01,5.06,11.014,16]nonadeca-2,11-dien-4-yl) ester

> <PUBCHEM_IUPAC_INCHI>
InChI=1S/C25H34O6/c1-12-10-24-13(2)8-17-18(22(17,4)5)16(19(24)27)9-15-11-29-23(6,7)31-21(15)25(24,28)20(12)30-14(3)26/h9-10,13,16-18,20-21,28H,8,11H2,1-7H3

> <PUBCHEM_IUPAC_INCHIKEY>
SYJKODHRAIIUHW-UHFFFAOYSA-N

> <PUBCHEM_XLOGP3_AA>
1.8

> <PUBCHEM_EXACT_MASS>
430.235539

> <PUBCHEM_MOLECULAR_FORMULA>
C25H34O6

> <PUBCHEM_MOLECULAR_WEIGHT>
430.5

> <PUBCHEM_OPENEYE_CAN_SMILES>
CC1CC2C(C2(C)C)C3C=C4COC(OC4C5(C1(C3=O)C=C(C5OC(=O)C)C)O)(C)C

> <PUBCHEM_OPENEYE_ISO_SMILES>
CC1CC2C(C2(C)C)C3C=C4COC(OC4C5(C1(C3=O)C=C(C5OC(=O)C)C)O)(C)C

> <PUBCHEM_CACTVS_TPSA>
82.1

> <PUBCHEM_MONOISOTOPIC_WEIGHT>
430.235539

> <PUBCHEM_TOTAL_CHARGE>
0

> <PUBCHEM_HEAVY_ATOM_COUNT>
31

> <PUBCHEM_ATOM_DEF_STEREO_COUNT>
0

> <PUBCHEM_ATOM_UDEF_STEREO_COUNT>
8

> <PUBCHEM_BOND_DEF_STEREO_COUNT>
0

> <PUBCHEM_BOND_UDEF_STEREO_COUNT>
0

> <PUBCHEM_ISOTOPIC_ATOM_COUNT>
0

> <PUBCHEM_COMPONENT_COUNT>
1

> <PUBCHEM_CACTVS_TAUTO_COUNT>
-1

> <PUBCHEM_COORDINATE_TYPE>
1
5
255

> <PUBCHEM_BONDANNOTATIONS>
14  1  3
10  19  3
12  21  3
13  23  3
18  2  3
20  4  3
7  9  3
8  11  3

$$$$
