536571
  -OEChem-11232013582D

 61 64  0     1  0  0  0  0  0999 V2000
    5.3011    2.0630    0.0000 O   0  0  0  0  0  0  0  0  0  0  0  0
    6.3100   -1.6354    0.0000 O   0  0  0  0  0  0  0  0  0  0  0  0
    2.3100   -1.6354    0.0000 O   0  0  0  0  0  0  0  0  0  0  0  0
    3.9762    3.2787    0.0000 O   0  0  0  0  0  0  0  0  0  0  0  0
    6.2470   -0.2613    0.0000 O   0  0  0  0  0  0  0  0  0  0  0  0
    4.5760   -1.4122    0.0000 O   0  0  0  0  0  0  0  0  0  0  0  0
    6.3100   -3.3675    0.0000 O   0  0  0  0  0  0  0  0  0  0  0  0
    4.8100   -2.5014    0.0000 C   0  0  3  0  0  0  0  0  0  0  0  0
    4.3100   -3.3680    0.0000 C   0  0  0  0  0  0  0  0  0  0  0  0
    3.8100   -2.5014    0.0000 C   0  0  3  0  0  0  0  0  0  0  0  0
    5.3009    1.0626    0.0000 C   0  0  3  0  0  0  0  0  0  0  0  0
    4.4348    1.5626    0.0000 C   0  0  3  0  0  0  0  0  0  0  0  0
    5.3100   -1.6354    0.0000 C   0  0  3  0  0  0  0  0  0  0  0  0
    3.3100   -1.6354    0.0000 C   0  0  3  0  0  0  0  0  0  0  0  0
    4.6440    2.5344    0.0000 C   0  0  3  0  0  0  0  0  0  0  0  0
    6.0379    1.7296    0.0000 C   0  0  0  0  0  0  0  0  0  0  0  0
    4.8100   -0.7694    0.0000 C   0  0  3  0  0  0  0  0  0  0  0  0
    5.6328    2.6374    0.0000 C   0  0  3  0  0  0  0  0  0  0  0  0
    5.3009    0.0625    0.0000 C   0  0  0  0  0  0  0  0  0  0  0  0
    3.4440   -3.8680    0.0000 C   0  0  0  0  0  0  0  0  0  0  0  0
    5.1760   -3.8680    0.0000 C   0  0  0  0  0  0  0  0  0  0  0  0
    3.5688    1.0626    0.0000 C   0  0  0  0  0  0  0  0  0  0  0  0
    3.8100   -0.7694    0.0000 C   0  0  3  0  0  0  0  0  0  0  0  0
    3.3100    0.0966    0.0000 C   0  0  0  0  0  0  0  0  0  0  0  0
    4.3401    0.1133    0.0000 C   0  0  0  0  0  0  0  0  0  0  0  0
    6.1328    3.5034    0.0000 C   0  0  0  0  0  0  0  0  0  0  0  0
    2.3186   -0.0339    0.0000 C   0  0  0  0  0  0  0  0  0  0  0  0
    6.8100   -2.5014    0.0000 C   0  0  0  0  0  0  0  0  0  0  0  0
    7.8100   -2.5014    0.0000 C   0  0  0  0  0  0  0  0  0  0  0  0
    5.3470   -2.8114    0.0000 H   0  0  0  0  0  0  0  0  0  0  0  0
    3.2730   -2.8114    0.0000 H   0  0  0  0  0  0  0  0  0  0  0  0
    5.6200   -1.0985    0.0000 H   0  0  0  0  0  0  0  0  0  0  0  0
    3.0000   -1.0985    0.0000 H   0  0  0  0  0  0  0  0  0  0  0  0
    4.0448    2.3752    0.0000 H   0  0  0  0  0  0  0  0  0  0  0  0
    6.4033    1.2288    0.0000 H   0  0  0  0  0  0  0  0  0  0  0  0
    6.5744    2.0404    0.0000 H   0  0  0  0  0  0  0  0  0  0  0  0
    4.2678   -1.0701    0.0000 H   0  0  0  0  0  0  0  0  0  0  0  0
    5.2953    3.1575    0.0000 H   0  0  0  0  0  0  0  0  0  0  0  0
    3.1340   -3.3310    0.0000 H   0  0  0  0  0  0  0  0  0  0  0  0
    2.9070   -4.1780    0.0000 H   0  0  0  0  0  0  0  0  0  0  0  0
    3.7540   -4.4049    0.0000 H   0  0  0  0  0  0  0  0  0  0  0  0
    4.8660   -4.4049    0.0000 H   0  0  0  0  0  0  0  0  0  0  0  0
    5.7130   -4.1780    0.0000 H   0  0  0  0  0  0  0  0  0  0  0  0
    5.4860   -3.3310    0.0000 H   0  0  0  0  0  0  0  0  0  0  0  0
    3.0769    1.4400    0.0000 H   0  0  0  0  0  0  0  0  0  0  0  0
    4.2850   -0.3709    0.0000 H   0  0  0  0  0  0  0  0  0  0  0  0
    4.8873    0.4047    0.0000 H   0  0  0  0  0  0  0  0  0  0  0  0
    4.0487    0.6606    0.0000 H   0  0  0  0  0  0  0  0  0  0  0  0
    3.7928   -0.1781    0.0000 H   0  0  0  0  0  0  0  0  0  0  0  0
    6.6697    3.1934    0.0000 H   0  0  0  0  0  0  0  0  0  0  0  0
    6.4428    4.0404    0.0000 H   0  0  0  0  0  0  0  0  0  0  0  0
    5.5958    3.8134    0.0000 H   0  0  0  0  0  0  0  0  0  0  0  0
    2.0000   -2.1724    0.0000 H   0  0  0  0  0  0  0  0  0  0  0  0
    4.1688    3.8680    0.0000 H   0  0  0  0  0  0  0  0  0  0  0  0
    2.2376    0.5808    0.0000 H   0  0  0  0  0  0  0  0  0  0  0  0
    1.7039   -0.1148    0.0000 H   0  0  0  0  0  0  0  0  0  0  0  0
    2.3995   -0.6486    0.0000 H   0  0  0  0  0  0  0  0  0  0  0  0
    4.1776   -1.8872    0.0000 H   0  0  0  0  0  0  0  0  0  0  0  0
    7.8100   -3.1214    0.0000 H   0  0  0  0  0  0  0  0  0  0  0  0
    8.4300   -2.5014    0.0000 H   0  0  0  0  0  0  0  0  0  0  0  0
    7.8100   -1.8814    0.0000 H   0  0  0  0  0  0  0  0  0  0  0  0
  1 11  1  0  0  0  0
  1 12  1  0  0  0  0
  2 13  1  0  0  0  0
  2 28  1  0  0  0  0
  3 14  1  0  0  0  0
  3 53  1  0  0  0  0
  4 15  1  0  0  0  0
  4 54  1  0  0  0  0
  5 19  2  0  0  0  0
  6 23  1  0  0  0  0
  6 58  1  0  0  0  0
  7 28  2  0  0  0  0
  8  9  1  0  0  0  0
  8 10  1  0  0  0  0
  8 13  1  0  0  0  0
  8 30  1  0  0  0  0
  9 10  1  0  0  0  0
  9 20  1  0  0  0  0
  9 21  1  0  0  0  0
 10 14  1  0  0  0  0
 10 31  1  0  0  0  0
 11 12  1  0  0  0  0
 11 16  1  0  0  0  0
 11 19  1  0  0  0  0
 12 15  1  0  0  0  0
 12 22  1  0  0  0  0
 13 17  1  0  0  0  0
 13 32  1  0  0  0  0
 14 23  1  0  0  0  0
 14 33  1  0  0  0  0
 15 18  1  0  0  0  0
 15 34  1  0  0  0  0
 16 18  1  0  0  0  0
 16 35  1  0  0  0  0
 16 36  1  0  0  0  0
 17 19  1  0  0  0  0
 17 25  1  0  0  0  0
 17 37  1  0  0  0  0
 18 26  1  0  0  0  0
 18 38  1  0  0  0  0
 20 39  1  0  0  0  0
 20 40  1  0  0  0  0
 20 41  1  0  0  0  0
 21 42  1  0  0  0  0
 21 43  1  0  0  0  0
 21 44  1  0  0  0  0
 22 24  2  3  0  0  0
 22 45  1  0  0  0  0
 23 24  1  0  0  0  0
 23 46  1  0  0  0  0
 24 27  1  0  0  0  0
 25 47  1  0  0  0  0
 25 48  1  0  0  0  0
 25 49  1  0  0  0  0
 26 50  1  0  0  0  0
 26 51  1  0  0  0  0
 26 52  1  0  0  0  0
 27 55  1  0  0  0  0
 27 56  1  0  0  0  0
 27 57  1  0  0  0  0
 28 29  1  0  0  0  0
 29 59  1  0  0  0  0
 29 60  1  0  0  0  0
 29 61  1  0  0  0  0
M  END
> <PUBCHEM_COMPOUND_CID>
536571

> <PUBCHEM_COMPOUND_CANONICALIZED>
1

> <PUBCHEM_CACTVS_COMPLEXITY>
788

> <PUBCHEM_CACTVS_HBOND_ACCEPTOR>
7

> <PUBCHEM_CACTVS_HBOND_DONOR>
3

> <PUBCHEM_CACTVS_ROTATABLE_BOND>
2

> <PUBCHEM_CACTVS_SUBSKEYS>
AAADcfB4OAAAAAAAAAAAAAAAGiAAAYAAAAAkAAAAAAAAAAAAAAAAGgAACAAAD1SggAICCAAABgCIAqDSCAIAAAAgAAAACAFAAAgBFBYAIQQCUAAF4AALMAPK7PzPgAAAAAAAAAAAAAAAAAAAAYQADCAAAA==

> <PUBCHEM_IUPAC_OPENEYE_NAME>
(8,9,13-trihydroxy-3,6,6,10,14-pentamethyl-2-oxo-16-oxatetracyclo[10.3.1.01,12.05,7]hexadec-10-en-4-yl) acetate

> <PUBCHEM_IUPAC_CAS_NAME>
acetic acid (8,9,13-trihydroxy-3,6,6,10,14-pentamethyl-2-oxo-16-oxatetracyclo[10.3.1.01,12.05,7]hexadec-10-en-4-yl) ester

> <PUBCHEM_IUPAC_NAME_MARKUP>
(8,9,13-trihydroxy-3,6,6,10,14-pentamethyl-2-oxo-16-oxatetracyclo[10.3.1.0<SUP>1,12</SUP>.0<SUP>5,7</SUP>]hexadec-10-en-4-yl) acetate

> <PUBCHEM_IUPAC_NAME>
(8,9,13-trihydroxy-3,6,6,10,14-pentamethyl-2-oxo-16-oxatetracyclo[10.3.1.01,12.05,7]hexadec-10-en-4-yl) acetate

> <PUBCHEM_IUPAC_SYSTEMATIC_NAME>
[3,6,6,10,14-pentamethyl-8,9,13-tris(oxidanyl)-2-oxidanylidene-16-oxatetracyclo[10.3.1.01,12.05,7]hexadec-10-en-4-yl] ethanoate

> <PUBCHEM_IUPAC_TRADITIONAL_NAME>
acetic acid (8,9,13-trihydroxy-2-keto-3,6,6,10,14-pentamethyl-16-oxatetracyclo[10.3.1.01,12.05,7]hexadec-10-en-4-yl) ester

> <PUBCHEM_IUPAC_INCHI>
InChI=1S/C22H32O7/c1-9-7-21-18(26)10(2)8-22(21,29-21)19(27)11(3)17(28-12(4)23)14-13(20(14,5)6)16(25)15(9)24/h7,10-11,13-18,24-26H,8H2,1-6H3

> <PUBCHEM_IUPAC_INCHIKEY>
JFZZVNOEGLOJCR-UHFFFAOYSA-N

> <PUBCHEM_XLOGP3_AA>
0.5

> <PUBCHEM_EXACT_MASS>
408.214803

> <PUBCHEM_MOLECULAR_FORMULA>
C22H32O7

> <PUBCHEM_MOLECULAR_WEIGHT>
408.5

> <PUBCHEM_OPENEYE_CAN_SMILES>
CC1CC23C(=O)C(C(C4C(C4(C)C)C(C(C(=CC2(C1O)O3)C)O)O)OC(=O)C)C

> <PUBCHEM_OPENEYE_ISO_SMILES>
CC1CC23C(=O)C(C(C4C(C4(C)C)C(C(C(=CC2(C1O)O3)C)O)O)OC(=O)C)C

> <PUBCHEM_CACTVS_TPSA>
117

> <PUBCHEM_MONOISOTOPIC_WEIGHT>
408.214803

> <PUBCHEM_TOTAL_CHARGE>
0

> <PUBCHEM_HEAVY_ATOM_COUNT>
29

> <PUBCHEM_ATOM_DEF_STEREO_COUNT>
0

> <PUBCHEM_ATOM_UDEF_STEREO_COUNT>
10

> <PUBCHEM_BOND_DEF_STEREO_COUNT>
0

> <PUBCHEM_BOND_UDEF_STEREO_COUNT>
1

> <PUBCHEM_ISOTOPIC_ATOM_COUNT>
0

> <PUBCHEM_COMPONENT_COUNT>
1

> <PUBCHEM_CACTVS_TAUTO_COUNT>
-1

> <PUBCHEM_COORDINATE_TYPE>
1
5
255

> <PUBCHEM_BONDANNOTATIONS>
11  16  3
12  22  3
17  25  3
18  26  3
13  2  3
22  24  1
14  3  3
15  4  3
23  6  3
8  9  3
10  9  3

$$$$
