5316727
  -OEChem-09222006032D

 47 52  0     1  0  0  0  0  0999 V2000
    6.0110   -0.4760    0.0000 O   0  0  0  0  0  0  0  0  0  0  0  0
    4.5103   -1.9861    0.0000 N   0  0  3  0  0  0  0  0  0  0  0  0
    5.0981    2.1863    0.0000 N   0  0  0  0  0  0  0  0  0  0  0  0
    4.5981    0.6475    0.0000 C   0  0  3  0  0  0  0  0  0  0  0  0
    3.7320    0.1475    0.0000 C   0  0  3  0  0  0  0  0  0  0  0  0
    3.7320   -0.8525    0.0000 C   0  0  3  0  0  0  0  0  0  0  0  0
    4.5981   -1.3525    0.0000 C   0  0  3  0  0  0  0  0  0  0  0  0
    5.4641   -0.8525    0.0000 C   0  0  3  0  0  0  0  0  0  0  0  0
    5.4071    1.2353    0.0000 C   0  0  3  0  0  0  0  0  0  0  0  0
    5.4641    0.1475    0.0000 C   0  0  0  0  0  0  0  0  0  0  0  0
    5.3061    0.2411    0.0000 C   0  0  3  0  0  0  0  0  0  0  0  0
    4.6807   -0.5384    0.0000 C   0  0  0  0  0  0  0  0  0  0  0  0
    3.2272   -1.2454    0.0000 C   0  0  0  0  0  0  0  0  0  0  0  0
    3.7891    1.2353    0.0000 C   0  0  0  0  0  0  0  0  0  0  0  0
    5.6027   -1.3950    0.0000 C   0  0  0  0  0  0  0  0  0  0  0  0
    2.8660   -0.3525    0.0000 C   0  0  0  0  0  0  0  0  0  0  0  0
    4.0981    2.1863    0.0000 C   0  0  0  0  0  0  0  0  0  0  0  0
    4.6832   -2.9711    0.0000 C   0  0  0  0  0  0  0  0  0  0  0  0
    2.7736    1.0030    0.0000 C   0  0  0  0  0  0  0  0  0  0  0  0
    3.4131    2.9711    0.0000 C   0  0  0  0  0  0  0  0  0  0  0  0
    2.0000    0.1475    0.0000 C   0  0  0  0  0  0  0  0  0  0  0  0
    2.0707    1.7717    0.0000 C   0  0  0  0  0  0  0  0  0  0  0  0
    2.3926    2.7624    0.0000 C   0  0  0  0  0  0  0  0  0  0  0  0
    3.1951   -1.1625    0.0000 H   0  0  0  0  0  0  0  0  0  0  0  0
    4.4250   -1.9479    0.0000 H   0  0  0  0  0  0  0  0  0  0  0  0
    6.0466   -1.0650    0.0000 H   0  0  0  0  0  0  0  0  0  0  0  0
    6.0236    1.3012    0.0000 H   0  0  0  0  0  0  0  0  0  0  0  0
    6.0747    0.0398    0.0000 H   0  0  0  0  0  0  0  0  0  0  0  0
    5.6762    0.7301    0.0000 H   0  0  0  0  0  0  0  0  0  0  0  0
    5.8911    0.4465    0.0000 H   0  0  0  0  0  0  0  0  0  0  0  0
    4.6732   -1.1584    0.0000 H   0  0  0  0  0  0  0  0  0  0  0  0
    4.3270   -0.0292    0.0000 H   0  0  0  0  0  0  0  0  0  0  0  0
    2.6577   -1.0003    0.0000 H   0  0  0  0  0  0  0  0  0  0  0  0
    2.9492   -1.7996    0.0000 H   0  0  0  0  0  0  0  0  0  0  0  0
    5.4993   -2.0063    0.0000 H   0  0  0  0  0  0  0  0  0  0  0  0
    6.1963   -1.5739    0.0000 H   0  0  0  0  0  0  0  0  0  0  0  0
    2.8660   -0.9725    0.0000 H   0  0  0  0  0  0  0  0  0  0  0  0
    5.4625    2.6879    0.0000 H   0  0  0  0  0  0  0  0  0  0  0  0
    4.0726   -3.0783    0.0000 H   0  0  0  0  0  0  0  0  0  0  0  0
    4.7905   -3.5817    0.0000 H   0  0  0  0  0  0  0  0  0  0  0  0
    5.2939   -2.8638    0.0000 H   0  0  0  0  0  0  0  0  0  0  0  0
    2.5889    0.4112    0.0000 H   0  0  0  0  0  0  0  0  0  0  0  0
    3.6115    3.5585    0.0000 H   0  0  0  0  0  0  0  0  0  0  0  0
    2.0000    0.7675    0.0000 H   0  0  0  0  0  0  0  0  0  0  0  0
    1.4631   -0.1625    0.0000 H   0  0  0  0  0  0  0  0  0  0  0  0
    1.4648    1.6405    0.0000 H   0  0  0  0  0  0  0  0  0  0  0  0
    1.9795    3.2247    0.0000 H   0  0  0  0  0  0  0  0  0  0  0  0
  1 11  1  0  0  0  0
  1 15  1  0  0  0  0
  2  8  1  0  0  0  0
  2 13  1  0  0  0  0
  2 18  1  0  0  0  0
  3  9  1  0  0  0  0
  3 17  1  0  0  0  0
  3 38  1  0  0  0  0
  4  5  1  0  0  0  0
  4  9  1  0  0  0  0
  4 10  1  0  0  0  0
  4 14  1  0  0  0  0
  5  6  1  0  0  0  0
  5 13  1  0  0  0  0
  5 16  1  0  0  0  0
  6  7  1  0  0  0  0
  6 12  1  0  0  0  0
  6 24  1  0  0  0  0
  7  8  1  0  0  0  0
  7 15  1  0  0  0  0
  7 25  1  0  0  0  0
  8 10  1  0  0  0  0
  8 26  1  0  0  0  0
  9 11  1  0  0  0  0
  9 27  1  0  0  0  0
 10 28  1  0  0  0  0
 10 29  1  0  0  0  0
 11 12  1  0  0  0  0
 11 30  1  0  0  0  0
 12 31  1  0  0  0  0
 12 32  1  0  0  0  0
 13 33  1  0  0  0  0
 13 34  1  0  0  0  0
 14 17  1  0  0  0  0
 14 19  2  0  0  0  0
 15 35  1  0  0  0  0
 15 36  1  0  0  0  0
 16 21  2  0  0  0  0
 16 37  1  0  0  0  0
 17 20  2  0  0  0  0
 18 39  1  0  0  0  0
 18 40  1  0  0  0  0
 18 41  1  0  0  0  0
 19 22  1  0  0  0  0
 19 42  1  0  0  0  0
 20 23  1  0  0  0  0
 20 43  1  0  0  0  0
 21 44  1  0  0  0  0
 21 45  1  0  0  0  0
 22 23  2  0  0  0  0
 22 46  1  0  0  0  0
 23 47  1  0  0  0  0
M  END
> <PUBCHEM_COMPOUND_CID>
5316727

> <PUBCHEM_COMPOUND_CANONICALIZED>
1

> <PUBCHEM_CACTVS_COMPLEXITY>
564

> <PUBCHEM_CACTVS_HBOND_ACCEPTOR>
3

> <PUBCHEM_CACTVS_HBOND_DONOR>
1

> <PUBCHEM_CACTVS_ROTATABLE_BOND>
1

> <PUBCHEM_CACTVS_SUBSKEYS>
AAADceB7IAAAAAAAAAAAAAAAAAAAAWAAAAA8eNECAAASAFgBAAAAHgAQAAAADzzhmAYywIPABACAAiRCQACCAAAhAgAIiIAIZIgKICLAkZGHIAhmkADYyAeQ0PMPgAAAAAACAADQAAaAACQgAAAAAAAAAA==

> <PUBCHEM_IUPAC_OPENEYE_NAME>
13-methyl-15-vinyl-19-oxa-3,13-diazahexacyclo[14.3.1.02,10.04,9.010,15.012,17]icosa-4,6,8-triene

> <PUBCHEM_IUPAC_CAS_NAME>
15-ethenyl-13-methyl-19-oxa-3,13-diazahexacyclo[14.3.1.02,10.04,9.010,15.012,17]eicosa-4,6,8-triene

> <PUBCHEM_IUPAC_NAME_MARKUP>
15-ethenyl-13-methyl-19-oxa-3,13-diazahexacyclo[14.3.1.0<SUP>2,10</SUP>.0<SUP>4,9</SUP>.0<SUP>10,15</SUP>.0<SUP>12,17</SUP>]icosa-4,6,8-triene

> <PUBCHEM_IUPAC_NAME>
15-ethenyl-13-methyl-19-oxa-3,13-diazahexacyclo[14.3.1.02,10.04,9.010,15.012,17]icosa-4,6,8-triene

> <PUBCHEM_IUPAC_SYSTEMATIC_NAME>
15-ethenyl-13-methyl-19-oxa-3,13-diazahexacyclo[14.3.1.02,10.04,9.010,15.012,17]icosa-4,6,8-triene

> <PUBCHEM_IUPAC_TRADITIONAL_NAME>
13-methyl-15-vinyl-19-oxa-3,13-diazahexacyclo[14.3.1.02,10.04,9.010,15.012,17]eicosa-4,6,8-triene

> <PUBCHEM_IUPAC_INCHI>
InChI=1S/C20H24N2O/c1-3-19-11-22(2)16-9-20(19)13-6-4-5-7-15(13)21-18(20)17-8-14(19)12(16)10-23-17/h3-7,12,14,16-18,21H,1,8-11H2,2H3

> <PUBCHEM_IUPAC_INCHIKEY>
CNWSBBUAKGYFRY-UHFFFAOYSA-N

> <PUBCHEM_XLOGP3_AA>
3.1

> <PUBCHEM_EXACT_MASS>
308.188863

> <PUBCHEM_MOLECULAR_FORMULA>
C20H24N2O

> <PUBCHEM_MOLECULAR_WEIGHT>
308.4

> <PUBCHEM_OPENEYE_CAN_SMILES>
CN1CC2(C3CC4C5C2(CC1C3CO4)C6=CC=CC=C6N5)C=C

> <PUBCHEM_OPENEYE_ISO_SMILES>
CN1CC2(C3CC4C5C2(CC1C3CO4)C6=CC=CC=C6N5)C=C

> <PUBCHEM_CACTVS_TPSA>
24.5

> <PUBCHEM_MONOISOTOPIC_WEIGHT>
308.188863

> <PUBCHEM_TOTAL_CHARGE>
0

> <PUBCHEM_HEAVY_ATOM_COUNT>
23

> <PUBCHEM_ATOM_DEF_STEREO_COUNT>
0

> <PUBCHEM_ATOM_UDEF_STEREO_COUNT>
7

> <PUBCHEM_BOND_DEF_STEREO_COUNT>
0

> <PUBCHEM_BOND_UDEF_STEREO_COUNT>
0

> <PUBCHEM_ISOTOPIC_ATOM_COUNT>
0

> <PUBCHEM_COMPONENT_COUNT>
1

> <PUBCHEM_CACTVS_TAUTO_COUNT>
-1

> <PUBCHEM_COORDINATE_TYPE>
1
5
255

> <PUBCHEM_BONDANNOTATIONS>
11  12  3
14  17  8
14  19  8
17  20  8
19  22  8
20  23  8
22  23  8
9  3  3
4  10  3
5  13  3
6  12  3
7  15  3
8  10  3

$$$$
