101601182
  -OEChem-09202015382D

 49 54  0     1  0  0  0  0  0999 V2000
    6.1432   -0.2158    0.0000 O   0  0  0  0  0  0  0  0  0  0  0  0
    6.3492    2.4203    0.0000 O   0  0  0  0  0  0  0  0  0  0  0  0
    4.5155   -0.9861    0.0000 O   0  0  0  0  0  0  0  0  0  0  0  0
    2.9827    0.6706    0.0000 N   0  0  3  0  0  0  0  0  0  0  0  0
    5.7756   -2.2461    0.0000 N   0  0  0  0  0  0  0  0  0  0  0  0
    5.4096    0.7927    0.0000 C   0  0  2  0  0  0  0  0  0  0  0  0
    5.4096   -0.2073    0.0000 C   0  0  2  0  0  0  0  0  0  0  0  0
    6.2756    1.2927    0.0000 C   0  0  1  0  0  0  0  0  0  0  0  0
    4.7883    0.5747    0.0000 C   0  0  1  0  0  0  0  0  0  0  0  0
    5.2877    1.4397    0.0000 C   0  0  1  0  0  0  0  0  0  0  0  0
    6.2756   -0.7073    0.0000 C   0  0  1  0  0  0  0  0  0  0  0  0
    4.2494   -0.3271    0.0000 C   0  0  0  0  0  0  0  0  0  0  0  0
    7.1416   -0.2073    0.0000 C   0  0  2  0  0  0  0  0  0  0  0  0
    7.1416    0.7927    0.0000 C   0  0  0  0  0  0  0  0  0  0  0  0
    5.5832    1.7775    0.0000 C   0  0  1  0  0  0  0  0  0  0  0  0
    5.3968    0.4473    0.0000 C   0  0  0  0  0  0  0  0  0  0  0  0
    7.0846   -1.2951    0.0000 C   0  0  0  0  0  0  0  0  0  0  0  0
    5.4666   -1.2951    0.0000 C   0  0  0  0  0  0  0  0  0  0  0  0
    2.0000    0.4855    0.0000 C   0  0  0  0  0  0  0  0  0  0  0  0
    4.8172    2.4203    0.0000 C   0  0  0  0  0  0  0  0  0  0  0  0
    6.7756   -2.2461    0.0000 C   0  0  0  0  0  0  0  0  0  0  0  0
    8.1000   -1.0628    0.0000 C   0  0  0  0  0  0  0  0  0  0  0  0
    7.4605   -3.0309    0.0000 C   0  0  0  0  0  0  0  0  0  0  0  0
    8.8029   -1.8315    0.0000 C   0  0  0  0  0  0  0  0  0  0  0  0
    8.4810   -2.8222    0.0000 C   0  0  0  0  0  0  0  0  0  0  0  0
    4.9847   -0.9435    0.0000 H   0  0  0  0  0  0  0  0  0  0  0  0
    7.0117    1.7177    0.0000 H   0  0  0  0  0  0  0  0  0  0  0  0
    3.9406    0.5120    0.0000 H   0  0  0  0  0  0  0  0  0  0  0  0
    4.4638    1.6487    0.0000 H   0  0  0  0  0  0  0  0  0  0  0  0
    3.8441   -0.7963    0.0000 H   0  0  0  0  0  0  0  0  0  0  0  0
    4.6998   -0.7533    0.0000 H   0  0  0  0  0  0  0  0  0  0  0  0
    7.8777    0.2177    0.0000 H   0  0  0  0  0  0  0  0  0  0  0  0
    7.7522    0.6850    0.0000 H   0  0  0  0  0  0  0  0  0  0  0  0
    7.3536    1.3753    0.0000 H   0  0  0  0  0  0  0  0  0  0  0  0
    5.5832    2.3975    0.0000 H   0  0  0  0  0  0  0  0  0  0  0  0
    4.7857    0.5516    0.0000 H   0  0  0  0  0  0  0  0  0  0  0  0
    5.1284   -0.1116    0.0000 H   0  0  0  0  0  0  0  0  0  0  0  0
    1.8852    1.0948    0.0000 H   0  0  0  0  0  0  0  0  0  0  0  0
    1.3907    0.3707    0.0000 H   0  0  0  0  0  0  0  0  0  0  0  0
    2.1148   -0.1238    0.0000 H   0  0  0  0  0  0  0  0  0  0  0  0
    5.2157    2.8952    0.0000 H   0  0  0  0  0  0  0  0  0  0  0  0
    4.3422    2.8188    0.0000 H   0  0  0  0  0  0  0  0  0  0  0  0
    4.4186    1.9454    0.0000 H   0  0  0  0  0  0  0  0  0  0  0  0
    5.4112   -2.7477    0.0000 H   0  0  0  0  0  0  0  0  0  0  0  0
    6.2416    3.0309    0.0000 H   0  0  0  0  0  0  0  0  0  0  0  0
    8.2848   -0.4710    0.0000 H   0  0  0  0  0  0  0  0  0  0  0  0
    7.2622   -3.6183    0.0000 H   0  0  0  0  0  0  0  0  0  0  0  0
    9.4089   -1.7003    0.0000 H   0  0  0  0  0  0  0  0  0  0  0  0
    8.8941   -3.2845    0.0000 H   0  0  0  0  0  0  0  0  0  0  0  0
  1 13  1  0  0  0  0
  1 16  1  0  0  0  0
 15  2  1  1  0  0  0
  2 45  1  0  0  0  0
  3 18  2  0  0  0  0
  4  9  1  0  0  0  0
  4 12  1  0  0  0  0
  4 19  1  0  0  0  0
  5 18  1  0  0  0  0
  5 21  1  0  0  0  0
  5 44  1  0  0  0  0
  6  7  1  0  0  0  0
  6  8  1  0  0  0  0
  6 12  1  1  0  0  0
  6 15  1  0  0  0  0
  7  9  1  0  0  0  0
  7 11  1  0  0  0  0
  7 26  1  6  0  0  0
  8 10  1  0  0  0  0
  8 14  1  0  0  0  0
  8 27  1  6  0  0  0
  9 10  1  0  0  0  0
  9 28  1  1  0  0  0
 10 16  1  0  0  0  0
 10 29  1  1  0  0  0
 11 13  1  0  0  0  0
 11 17  1  0  0  0  0
 11 18  1  6  0  0  0
 12 30  1  0  0  0  0
 12 31  1  0  0  0  0
 13 14  1  0  0  0  0
 13 32  1  6  0  0  0
 14 33  1  0  0  0  0
 14 34  1  0  0  0  0
 15 20  1  0  0  0  0
 15 35  1  0  0  0  0
 16 36  1  0  0  0  0
 16 37  1  0  0  0  0
 17 21  1  0  0  0  0
 17 22  2  0  0  0  0
 19 38  1  0  0  0  0
 19 39  1  0  0  0  0
 19 40  1  0  0  0  0
 20 41  1  0  0  0  0
 20 42  1  0  0  0  0
 20 43  1  0  0  0  0
 21 23  2  0  0  0  0
 22 24  1  0  0  0  0
 22 46  1  0  0  0  0
 23 25  1  0  0  0  0
 23 47  1  0  0  0  0
 24 25  2  0  0  0  0
 24 48  1  0  0  0  0
 25 49  1  0  0  0  0
M  END
> <PUBCHEM_COMPOUND_CID>
101601182

> <PUBCHEM_COMPOUND_CANONICALIZED>
1

> <PUBCHEM_CACTVS_COMPLEXITY>
640

> <PUBCHEM_CACTVS_HBOND_ACCEPTOR>
4

> <PUBCHEM_CACTVS_HBOND_DONOR>
2

> <PUBCHEM_CACTVS_ROTATABLE_BOND>
1

> <PUBCHEM_CACTVS_SUBSKEYS>
AAADceB7MAAAAAAAAAAAAAAAAAAAAeLEAAA8aIEABIAAAFgBAAAAHgAQCAAADzzhmAYywIPABgCIAiVSUACCAAAhAgAIiAEIZIgIMDbAlZGGYAhm9AHIyAe8/f/PgAAAAAACAADAAAYAADQAASAACQAAAA==

> <PUBCHEM_IUPAC_OPENEYE_NAME>
(1R,2R,5S,6S,7S,8S,11S)-2-[(1R)-1-hydroxyethyl]-4-methyl-spiro[9-oxa-4-azatetracyclo[6.3.1.02,6.05,11]dodecane-7,3'-indoline]-2'-one

> <PUBCHEM_IUPAC_CAS_NAME>
(1'R,2'R,3S,5'S,6'S,8'S,11'S)-2'-[(1R)-1-hydroxyethyl]-4'-methyl-2-spiro[1H-indole-3,7'-9-oxa-4-azatetracyclo[6.3.1.02,6.05,11]dodecane]one

> <PUBCHEM_IUPAC_NAME_MARKUP>
(1&apos;<I>R</I>,2&apos;<I>R</I>,3<I>S</I>,5&apos;<I>S</I>,6&apos;<I>S</I>,8&apos;<I>S</I>,11&apos;<I>S</I>)-2&apos;-[(1<I>R</I>)-1-hydroxyethyl]-4&apos;-methylspiro[1<I>H</I>-indole-3,7&apos;-9-oxa-4-azatetracyclo[6.3.1.0<SUP>2,6</SUP>.0<SUP>5,11</SUP>]dodecane]-2-one

> <PUBCHEM_IUPAC_NAME>
(1'R,2'R,3S,5'S,6'S,8'S,11'S)-2'-[(1R)-1-hydroxyethyl]-4'-methylspiro[1H-indole-3,7'-9-oxa-4-azatetracyclo[6.3.1.02,6.05,11]dodecane]-2-one

> <PUBCHEM_IUPAC_SYSTEMATIC_NAME>
(1'R,2'R,3S,5'S,6'S,8'S,11'S)-4'-methyl-2'-[(1R)-1-oxidanylethyl]spiro[1H-indole-3,7'-9-oxa-4-azatetracyclo[6.3.1.02,6.05,11]dodecane]-2-one

> <PUBCHEM_IUPAC_TRADITIONAL_NAME>
(1R,2R,5S,6S,7S,8S,11S)-2-[(1R)-1-hydroxyethyl]-4-methyl-spiro[9-oxa-4-azatetracyclo[6.3.1.02,6.05,11]dodecane-7,3'-indoline]-2'-one

> <PUBCHEM_IUPAC_INCHI>
InChI=1S/C20H24N2O3/c1-10(23)19-9-22(2)16-11-8-25-15(7-13(11)19)20(17(16)19)12-5-3-4-6-14(12)21-18(20)24/h3-6,10-11,13,15-17,23H,7-9H2,1-2H3,(H,21,24)/t10-,11+,13-,15+,16-,17+,19-,20+/m1/s1

> <PUBCHEM_IUPAC_INCHIKEY>
JDFOFHZAWHYLEB-RPNCFXRPSA-N

> <PUBCHEM_XLOGP3_AA>
0.7

> <PUBCHEM_EXACT_MASS>
340.178693

> <PUBCHEM_MOLECULAR_FORMULA>
C20H24N2O3

> <PUBCHEM_MOLECULAR_WEIGHT>
340.4

> <PUBCHEM_OPENEYE_CAN_SMILES>
CC(C12CN(C3C1C4(C5CC2C3CO5)C6=CC=CC=C6NC4=O)C)O

> <PUBCHEM_OPENEYE_ISO_SMILES>
C[C@H]([C@@]12CN([C@H]3[C@@H]1[C@@]4([C@@H]5C[C@@H]2[C@@H]3CO5)C6=CC=CC=C6NC4=O)C)O

> <PUBCHEM_CACTVS_TPSA>
61.8

> <PUBCHEM_MONOISOTOPIC_WEIGHT>
340.178693

> <PUBCHEM_TOTAL_CHARGE>
0

> <PUBCHEM_HEAVY_ATOM_COUNT>
25

> <PUBCHEM_ATOM_DEF_STEREO_COUNT>
8

> <PUBCHEM_ATOM_UDEF_STEREO_COUNT>
0

> <PUBCHEM_BOND_DEF_STEREO_COUNT>
0

> <PUBCHEM_BOND_UDEF_STEREO_COUNT>
0

> <PUBCHEM_ISOTOPIC_ATOM_COUNT>
0

> <PUBCHEM_COMPONENT_COUNT>
1

> <PUBCHEM_CACTVS_TAUTO_COUNT>
-1

> <PUBCHEM_COORDINATE_TYPE>
1
5
255

> <PUBCHEM_BONDANNOTATIONS>
10  29  5
11  18  6
13  32  6
17  21  8
17  22  8
15  2  5
21  23  8
22  24  8
23  25  8
24  25  8
6  12  5
7  26  6
8  27  6
9  28  5

$$$$
