101601181
  -OEChem-09202015372D

 58 63  0     1  0  0  0  0  0999 V2000
    6.1432   -0.2329    0.0000 O   0  0  0  0  0  0  0  0  0  0  0  0
    6.5176    2.3581    0.0000 O   0  0  0  0  0  0  0  0  0  0  0  0
    4.5155   -1.0031    0.0000 O   0  0  0  0  0  0  0  0  0  0  0  0
    5.1878   -3.0722    0.0000 O   0  0  0  0  0  0  0  0  0  0  0  0
    5.4043    3.6850    0.0000 O   0  0  0  0  0  0  0  0  0  0  0  0
    2.9827    0.6535    0.0000 N   0  0  3  0  0  0  0  0  0  0  0  0
    5.7756   -2.2632    0.0000 N   0  0  0  0  0  0  0  0  0  0  0  0
    5.4096    0.7757    0.0000 C   0  0  2  0  0  0  0  0  0  0  0  0
    5.4096   -0.2243    0.0000 C   0  0  2  0  0  0  0  0  0  0  0  0
    6.2756    1.2757    0.0000 C   0  0  1  0  0  0  0  0  0  0  0  0
    4.7883    0.5577    0.0000 C   0  0  1  0  0  0  0  0  0  0  0  0
    5.2877    1.4226    0.0000 C   0  0  1  0  0  0  0  0  0  0  0  0
    6.2756   -0.7243    0.0000 C   0  0  1  0  0  0  0  0  0  0  0  0
    4.2494   -0.3442    0.0000 C   0  0  0  0  0  0  0  0  0  0  0  0
    7.1416   -0.2243    0.0000 C   0  0  2  0  0  0  0  0  0  0  0  0
    7.1416    0.7757    0.0000 C   0  0  0  0  0  0  0  0  0  0  0  0
    5.7516    1.7154    0.0000 C   0  0  1  0  0  0  0  0  0  0  0  0
    5.3968    0.4302    0.0000 C   0  0  0  0  0  0  0  0  0  0  0  0
    7.0846   -1.3121    0.0000 C   0  0  0  0  0  0  0  0  0  0  0  0
    5.4666   -1.3121    0.0000 C   0  0  0  0  0  0  0  0  0  0  0  0
    2.0000    0.4685    0.0000 C   0  0  0  0  0  0  0  0  0  0  0  0
    5.1088    2.4814    0.0000 C   0  0  0  0  0  0  0  0  0  0  0  0
    6.7756   -2.2632    0.0000 C   0  0  0  0  0  0  0  0  0  0  0  0
    8.1000   -1.0799    0.0000 C   0  0  0  0  0  0  0  0  0  0  0  0
    7.4605   -3.0479    0.0000 C   0  0  0  0  0  0  0  0  0  0  0  0
    8.8029   -1.8486    0.0000 C   0  0  0  0  0  0  0  0  0  0  0  0
    6.3440    3.3430    0.0000 C   0  0  0  0  0  0  0  0  0  0  0  0
    8.4810   -2.8392    0.0000 C   0  0  0  0  0  0  0  0  0  0  0  0
    7.1100    3.9857    0.0000 C   0  0  0  0  0  0  0  0  0  0  0  0
    5.5945   -3.9857    0.0000 C   0  0  0  0  0  0  0  0  0  0  0  0
    4.9847   -0.9605    0.0000 H   0  0  0  0  0  0  0  0  0  0  0  0
    7.0117    1.7007    0.0000 H   0  0  0  0  0  0  0  0  0  0  0  0
    3.9406    0.4950    0.0000 H   0  0  0  0  0  0  0  0  0  0  0  0
    4.5849    1.9008    0.0000 H   0  0  0  0  0  0  0  0  0  0  0  0
    3.8441   -0.8134    0.0000 H   0  0  0  0  0  0  0  0  0  0  0  0
    4.6998   -0.7703    0.0000 H   0  0  0  0  0  0  0  0  0  0  0  0
    7.8777    0.2007    0.0000 H   0  0  0  0  0  0  0  0  0  0  0  0
    7.7522    0.6680    0.0000 H   0  0  0  0  0  0  0  0  0  0  0  0
    7.3536    1.3583    0.0000 H   0  0  0  0  0  0  0  0  0  0  0  0
    6.2594    1.3597    0.0000 H   0  0  0  0  0  0  0  0  0  0  0  0
    4.7857    0.5346    0.0000 H   0  0  0  0  0  0  0  0  0  0  0  0
    5.1284   -0.1287    0.0000 H   0  0  0  0  0  0  0  0  0  0  0  0
    1.8852    1.0777    0.0000 H   0  0  0  0  0  0  0  0  0  0  0  0
    1.3907    0.3537    0.0000 H   0  0  0  0  0  0  0  0  0  0  0  0
    2.1148   -0.1408    0.0000 H   0  0  0  0  0  0  0  0  0  0  0  0
    5.5837    2.8799    0.0000 H   0  0  0  0  0  0  0  0  0  0  0  0
    4.7102    2.9564    0.0000 H   0  0  0  0  0  0  0  0  0  0  0  0
    4.6338    2.0829    0.0000 H   0  0  0  0  0  0  0  0  0  0  0  0
    8.2848   -0.4880    0.0000 H   0  0  0  0  0  0  0  0  0  0  0  0
    7.2622   -3.6353    0.0000 H   0  0  0  0  0  0  0  0  0  0  0  0
    9.4089   -1.7173    0.0000 H   0  0  0  0  0  0  0  0  0  0  0  0
    8.8941   -3.3016    0.0000 H   0  0  0  0  0  0  0  0  0  0  0  0
    7.5085    3.5108    0.0000 H   0  0  0  0  0  0  0  0  0  0  0  0
    7.5850    4.3843    0.0000 H   0  0  0  0  0  0  0  0  0  0  0  0
    6.7115    4.4607    0.0000 H   0  0  0  0  0  0  0  0  0  0  0  0
    5.0281   -4.2379    0.0000 H   0  0  0  0  0  0  0  0  0  0  0  0
    5.8467   -4.5521    0.0000 H   0  0  0  0  0  0  0  0  0  0  0  0
    6.1609   -3.7336    0.0000 H   0  0  0  0  0  0  0  0  0  0  0  0
  1 15  1  0  0  0  0
  1 18  1  0  0  0  0
 17  2  1  1  0  0  0
  2 27  1  0  0  0  0
  3 20  2  0  0  0  0
  4  7  1  0  0  0  0
  4 30  1  0  0  0  0
  5 27  2  0  0  0  0
  6 11  1  0  0  0  0
  6 14  1  0  0  0  0
  6 21  1  0  0  0  0
  7 20  1  0  0  0  0
  7 23  1  0  0  0  0
  8  9  1  0  0  0  0
  8 10  1  0  0  0  0
  8 14  1  1  0  0  0
  8 17  1  0  0  0  0
  9 11  1  0  0  0  0
  9 13  1  0  0  0  0
  9 31  1  6  0  0  0
 10 12  1  0  0  0  0
 10 16  1  0  0  0  0
 10 32  1  6  0  0  0
 11 12  1  0  0  0  0
 11 33  1  1  0  0  0
 12 18  1  0  0  0  0
 12 34  1  1  0  0  0
 13 15  1  0  0  0  0
 13 19  1  0  0  0  0
 13 20  1  6  0  0  0
 14 35  1  0  0  0  0
 14 36  1  0  0  0  0
 15 16  1  0  0  0  0
 15 37  1  6  0  0  0
 16 38  1  0  0  0  0
 16 39  1  0  0  0  0
 17 22  1  0  0  0  0
 17 40  1  0  0  0  0
 18 41  1  0  0  0  0
 18 42  1  0  0  0  0
 19 23  1  0  0  0  0
 19 24  2  0  0  0  0
 21 43  1  0  0  0  0
 21 44  1  0  0  0  0
 21 45  1  0  0  0  0
 22 46  1  0  0  0  0
 22 47  1  0  0  0  0
 22 48  1  0  0  0  0
 23 25  2  0  0  0  0
 24 26  1  0  0  0  0
 24 49  1  0  0  0  0
 25 28  1  0  0  0  0
 25 50  1  0  0  0  0
 26 28  2  0  0  0  0
 26 51  1  0  0  0  0
 27 29  1  0  0  0  0
 28 52  1  0  0  0  0
 29 53  1  0  0  0  0
 29 54  1  0  0  0  0
 29 55  1  0  0  0  0
 30 56  1  0  0  0  0
 30 57  1  0  0  0  0
 30 58  1  0  0  0  0
M  END
> <PUBCHEM_COMPOUND_CID>
101601181

> <PUBCHEM_COMPOUND_CANONICALIZED>
1

> <PUBCHEM_CACTVS_COMPLEXITY>
790

> <PUBCHEM_CACTVS_HBOND_ACCEPTOR>
6

> <PUBCHEM_CACTVS_HBOND_DONOR>
0

> <PUBCHEM_CACTVS_ROTATABLE_BOND>
4

> <PUBCHEM_CACTVS_SUBSKEYS>
AAADceB7OAAAAAAAAAAAAAAAAAAAAeLEAAA8aIEABIAAAFgBAAAAHgAEAAAADzzhmAYyyIMQBACIAiXSWACCAAAhAgAoiAEIZIgIIDbAlZGGIAhm5AHIyAe8/f/PgAAAAAACAADAAAYAADQAASAACQAAAA==

> <PUBCHEM_IUPAC_OPENEYE_NAME>
[(1R)-1-[(1R,2R,5S,6S,7S,8S,11S)-1'-methoxy-4-methyl-2'-oxo-spiro[9-oxa-4-azatetracyclo[6.3.1.02,6.05,11]dodecane-7,3'-indoline]-2-yl]ethyl] acetate

> <PUBCHEM_IUPAC_CAS_NAME>
acetic acid [(1R)-1-[(1R,2R,5S,6S,7S,8S,11S)-1'-methoxy-4-methyl-2'-oxo-2-spiro[9-oxa-4-azatetracyclo[6.3.1.02,6.05,11]dodecane-7,3'-indole]yl]ethyl] ester

> <PUBCHEM_IUPAC_NAME_MARKUP>
[(1<I>R</I>)-1-[(1<I>R</I>,2<I>R</I>,5<I>S</I>,6<I>S</I>,7<I>S</I>,8<I>S</I>,11<I>S</I>)-1&apos;-methoxy-4-methyl-2&apos;-oxospiro[9-oxa-4-azatetracyclo[6.3.1.0<SUP>2,6</SUP>.0<SUP>5,11</SUP>]dodecane-7,3&apos;-indole]-2-yl]ethyl] acetate

> <PUBCHEM_IUPAC_NAME>
[(1R)-1-[(1R,2R,5S,6S,7S,8S,11S)-1'-methoxy-4-methyl-2'-oxospiro[9-oxa-4-azatetracyclo[6.3.1.02,6.05,11]dodecane-7,3'-indole]-2-yl]ethyl] acetate

> <PUBCHEM_IUPAC_SYSTEMATIC_NAME>
[(1R)-1-[(1R,2R,5S,6S,7S,8S,11S)-1'-methoxy-4-methyl-2'-oxidanylidene-spiro[9-oxa-4-azatetracyclo[6.3.1.02,6.05,11]dodecane-7,3'-indole]-2-yl]ethyl] ethanoate

> <PUBCHEM_IUPAC_TRADITIONAL_NAME>
acetic acid [(1R)-1-[(1R,2R,5S,6S,7S,8S,11S)-2'-keto-1'-methoxy-4-methyl-spiro[9-oxa-4-azatetracyclo[6.3.1.02,6.05,11]dodecane-7,3'-indoline]-2-yl]ethyl] ester

> <PUBCHEM_IUPAC_INCHI>
InChI=1S/C23H28N2O5/c1-12(30-13(2)26)22-11-24(3)19-14-10-29-18(9-16(14)22)23(20(19)22)15-7-5-6-8-17(15)25(28-4)21(23)27/h5-8,12,14,16,18-20H,9-11H2,1-4H3/t12-,14+,16-,18+,19-,20+,22-,23+/m1/s1

> <PUBCHEM_IUPAC_INCHIKEY>
BTZWFBFZHHQPCI-ANBNLFSGSA-N

> <PUBCHEM_XLOGP3_AA>
1.5

> <PUBCHEM_EXACT_MASS>
412.199822

> <PUBCHEM_MOLECULAR_FORMULA>
C23H28N2O5

> <PUBCHEM_MOLECULAR_WEIGHT>
412.5

> <PUBCHEM_OPENEYE_CAN_SMILES>
CC(C12CN(C3C1C4(C5CC2C3CO5)C6=CC=CC=C6N(C4=O)OC)C)OC(=O)C

> <PUBCHEM_OPENEYE_ISO_SMILES>
C[C@H]([C@@]12CN([C@H]3[C@@H]1[C@@]4([C@@H]5C[C@@H]2[C@@H]3CO5)C6=CC=CC=C6N(C4=O)OC)C)OC(=O)C

> <PUBCHEM_CACTVS_TPSA>
68.3

> <PUBCHEM_MONOISOTOPIC_WEIGHT>
412.199822

> <PUBCHEM_TOTAL_CHARGE>
0

> <PUBCHEM_HEAVY_ATOM_COUNT>
30

> <PUBCHEM_ATOM_DEF_STEREO_COUNT>
8

> <PUBCHEM_ATOM_UDEF_STEREO_COUNT>
0

> <PUBCHEM_BOND_DEF_STEREO_COUNT>
0

> <PUBCHEM_BOND_UDEF_STEREO_COUNT>
0

> <PUBCHEM_ISOTOPIC_ATOM_COUNT>
0

> <PUBCHEM_COMPONENT_COUNT>
1

> <PUBCHEM_CACTVS_TAUTO_COUNT>
-1

> <PUBCHEM_COORDINATE_TYPE>
1
5
255

> <PUBCHEM_BONDANNOTATIONS>
10  32  6
11  33  5
12  34  5
13  20  6
15  37  6
19  23  8
19  24  8
17  2  5
23  25  8
24  26  8
25  28  8
26  28  8
8  14  5
9  31  6

$$$$
