13995448
  -OEChem-09222006522D

 70 74  0     1  0  0  0  0  0999 V2000
    6.8671   -1.4971    0.0000 O   0  0  0  0  0  0  0  0  0  0  0  0
    8.4059    0.0029    0.0000 O   0  0  0  0  0  0  0  0  0  0  0  0
    5.3372    0.0029    0.0000 O   0  0  0  0  0  0  0  0  0  0  0  0
    5.1350   -1.4971    0.0000 O   0  0  0  0  0  0  0  0  0  0  0  0
    6.8671   -3.4971    0.0000 O   0  0  0  0  0  0  0  0  0  0  0  0
    5.1350   -4.4971    0.0000 O   0  0  0  0  0  0  0  0  0  0  0  0
    3.4030   -3.4971    0.0000 O   0  0  0  0  0  0  0  0  0  0  0  0
    2.5369   -1.9971    0.0000 O   0  0  0  0  0  0  0  0  0  0  0  0
   10.3924   -3.1241    0.0000 O   0  0  0  0  0  0  0  0  0  0  0  0
    3.3425    3.1211    0.0000 O   0  0  0  0  0  0  0  0  0  0  0  0
    9.0542   -4.6104    0.0000 O   0  0  0  0  0  0  0  0  0  0  0  0
    4.6782    4.6097    0.0000 O   0  0  0  0  0  0  0  0  0  0  0  0
    6.8671   -0.4971    0.0000 C   0  0  3  0  0  0  0  0  0  0  0  0
    6.8671    0.5029    0.0000 C   0  0  3  0  0  0  0  0  0  0  0  0
    7.8181   -0.8062    0.0000 C   0  0  3  0  0  0  0  0  0  0  0  0
    5.9208    0.8076    0.0000 C   0  0  3  0  0  0  0  0  0  0  0  0
    5.9208   -0.8019    0.0000 C   0  0  0  0  0  0  0  0  0  0  0  0
    7.8181    0.8119    0.0000 C   0  0  0  0  0  0  0  0  0  0  0  0
    6.0010   -1.9971    0.0000 C   0  0  3  0  0  0  0  0  0  0  0  0
    8.1271   -1.7572    0.0000 C   0  0  0  0  0  0  0  0  0  0  0  0
    5.6102    1.7581    0.0000 C   0  0  0  0  0  0  0  0  0  0  0  0
    6.0010   -2.9971    0.0000 C   0  0  3  0  0  0  0  0  0  0  0  0
    5.1350   -3.4971    0.0000 C   0  0  3  0  0  0  0  0  0  0  0  0
    4.2690   -1.9971    0.0000 C   0  0  3  0  0  0  0  0  0  0  0  0
    4.2690   -2.9971    0.0000 C   0  0  3  0  0  0  0  0  0  0  0  0
    9.1053   -1.9651    0.0000 C   0  0  0  0  0  0  0  0  0  0  0  0
    7.4580   -2.5004    0.0000 C   0  0  0  0  0  0  0  0  0  0  0  0
    4.6317    1.9643    0.0000 C   0  0  0  0  0  0  0  0  0  0  0  0
    6.2780    2.5024    0.0000 C   0  0  0  0  0  0  0  0  0  0  0  0
    3.4030   -1.4971    0.0000 C   0  0  0  0  0  0  0  0  0  0  0  0
    9.4143   -2.9162    0.0000 C   0  0  0  0  0  0  0  0  0  0  0  0
    7.7670   -3.4514    0.0000 C   0  0  0  0  0  0  0  0  0  0  0  0
    4.3210    2.9148    0.0000 C   0  0  0  0  0  0  0  0  0  0  0  0
    5.9674    3.4529    0.0000 C   0  0  0  0  0  0  0  0  0  0  0  0
    8.7452   -3.6593    0.0000 C   0  0  0  0  0  0  0  0  0  0  0  0
    4.9889    3.6592    0.0000 C   0  0  0  0  0  0  0  0  0  0  0  0
   10.7015   -4.0752    0.0000 C   0  0  0  0  0  0  0  0  0  0  0  0
    3.0318    4.0716    0.0000 C   0  0  0  0  0  0  0  0  0  0  0  0
    6.8663    1.1229    0.0000 H   0  0  0  0  0  0  0  0  0  0  0  0
    8.4305   -0.9032    0.0000 H   0  0  0  0  0  0  0  0  0  0  0  0
    5.3084    0.9038    0.0000 H   0  0  0  0  0  0  0  0  0  0  0  0
    5.3835   -1.1111    0.0000 H   0  0  0  0  0  0  0  0  0  0  0  0
    6.1719   -1.3688    0.0000 H   0  0  0  0  0  0  0  0  0  0  0  0
    8.3550    1.1219    0.0000 H   0  0  0  0  0  0  0  0  0  0  0  0
    7.5659    1.3783    0.0000 H   0  0  0  0  0  0  0  0  0  0  0  0
    6.0010   -1.3771    0.0000 H   0  0  0  0  0  0  0  0  0  0  0  0
    6.0010   -3.6171    0.0000 H   0  0  0  0  0  0  0  0  0  0  0  0
    4.5981   -3.8071    0.0000 H   0  0  0  0  0  0  0  0  0  0  0  0
    4.2690   -1.3771    0.0000 H   0  0  0  0  0  0  0  0  0  0  0  0
    4.2690   -3.6171    0.0000 H   0  0  0  0  0  0  0  0  0  0  0  0
    9.5201   -1.5044    0.0000 H   0  0  0  0  0  0  0  0  0  0  0  0
    6.8516   -2.3715    0.0000 H   0  0  0  0  0  0  0  0  0  0  0  0
    4.2176    1.5029    0.0000 H   0  0  0  0  0  0  0  0  0  0  0  0
    6.8847    2.3746    0.0000 H   0  0  0  0  0  0  0  0  0  0  0  0
    3.8015   -1.0222    0.0000 H   0  0  0  0  0  0  0  0  0  0  0  0
    3.0044   -1.0222    0.0000 H   0  0  0  0  0  0  0  0  0  0  0  0
    6.8671   -4.1171    0.0000 H   0  0  0  0  0  0  0  0  0  0  0  0
    7.3522   -3.9122    0.0000 H   0  0  0  0  0  0  0  0  0  0  0  0
    6.3814    3.9144    0.0000 H   0  0  0  0  0  0  0  0  0  0  0  0
    4.5981   -4.8071    0.0000 H   0  0  0  0  0  0  0  0  0  0  0  0
    3.4030   -4.1171    0.0000 H   0  0  0  0  0  0  0  0  0  0  0  0
    2.0000   -1.6871    0.0000 H   0  0  0  0  0  0  0  0  0  0  0  0
    8.6393   -5.0711    0.0000 H   0  0  0  0  0  0  0  0  0  0  0  0
    5.0923    5.0711    0.0000 H   0  0  0  0  0  0  0  0  0  0  0  0
   10.1118   -4.2667    0.0000 H   0  0  0  0  0  0  0  0  0  0  0  0
   10.8931   -4.6648    0.0000 H   0  0  0  0  0  0  0  0  0  0  0  0
   11.2911   -3.8836    0.0000 H   0  0  0  0  0  0  0  0  0  0  0  0
    3.6212    4.2642    0.0000 H   0  0  0  0  0  0  0  0  0  0  0  0
    2.8392    4.6609    0.0000 H   0  0  0  0  0  0  0  0  0  0  0  0
    2.4425    3.8790    0.0000 H   0  0  0  0  0  0  0  0  0  0  0  0
  1 13  1  0  0  0  0
  1 19  1  0  0  0  0
  2 15  1  0  0  0  0
  2 18  1  0  0  0  0
  3 16  1  0  0  0  0
  3 17  1  0  0  0  0
  4 19  1  0  0  0  0
  4 24  1  0  0  0  0
  5 22  1  0  0  0  0
  5 57  1  0  0  0  0
  6 23  1  0  0  0  0
  6 60  1  0  0  0  0
  7 25  1  0  0  0  0
  7 61  1  0  0  0  0
  8 30  1  0  0  0  0
  8 62  1  0  0  0  0
  9 31  1  0  0  0  0
  9 37  1  0  0  0  0
 10 33  1  0  0  0  0
 10 38  1  0  0  0  0
 11 35  1  0  0  0  0
 11 63  1  0  0  0  0
 12 36  1  0  0  0  0
 12 64  1  0  0  0  0
 13 14  1  0  0  0  0
 13 15  1  0  0  0  0
 13 17  1  0  0  0  0
 14 16  1  0  0  0  0
 14 18  1  0  0  0  0
 14 39  1  0  0  0  0
 15 20  1  0  0  0  0
 15 40  1  0  0  0  0
 16 21  1  0  0  0  0
 16 41  1  0  0  0  0
 17 42  1  0  0  0  0
 17 43  1  0  0  0  0
 18 44  1  0  0  0  0
 18 45  1  0  0  0  0
 19 22  1  0  0  0  0
 19 46  1  0  0  0  0
 20 26  2  0  0  0  0
 20 27  1  0  0  0  0
 21 28  2  0  0  0  0
 21 29  1  0  0  0  0
 22 23  1  0  0  0  0
 22 47  1  0  0  0  0
 23 25  1  0  0  0  0
 23 48  1  0  0  0  0
 24 25  1  0  0  0  0
 24 30  1  0  0  0  0
 24 49  1  0  0  0  0
 25 50  1  0  0  0  0
 26 31  1  0  0  0  0
 26 51  1  0  0  0  0
 27 32  2  0  0  0  0
 27 52  1  0  0  0  0
 28 33  1  0  0  0  0
 28 53  1  0  0  0  0
 29 34  2  0  0  0  0
 29 54  1  0  0  0  0
 30 55  1  0  0  0  0
 30 56  1  0  0  0  0
 31 35  2  0  0  0  0
 32 35  1  0  0  0  0
 32 58  1  0  0  0  0
 33 36  2  0  0  0  0
 34 36  1  0  0  0  0
 34 59  1  0  0  0  0
 37 65  1  0  0  0  0
 37 66  1  0  0  0  0
 37 67  1  0  0  0  0
 38 68  1  0  0  0  0
 38 69  1  0  0  0  0
 38 70  1  0  0  0  0
M  END
> <PUBCHEM_COMPOUND_CID>
13995448

> <PUBCHEM_COMPOUND_CANONICALIZED>
1

> <PUBCHEM_CACTVS_COMPLEXITY>
787

> <PUBCHEM_CACTVS_HBOND_ACCEPTOR>
12

> <PUBCHEM_CACTVS_HBOND_DONOR>
6

> <PUBCHEM_CACTVS_ROTATABLE_BOND>
7

> <PUBCHEM_CACTVS_SUBSKEYS>
AAADcfB4PAAAAAAAAAAAAAAAAAAAASJAAAA0YIAAAAASAAABQAAAGgAACAAADVSwmAMyDoAABgCAAiBCAAACCAAgIAAIiAAGiIgdNiKGMRqicCMlwBEPuAfA4PwOoAABAAAAQABAAAIAAACAAAAAAAAAAA==

> <PUBCHEM_IUPAC_OPENEYE_NAME>
2-[[3,6-bis(4-hydroxy-3-methoxy-phenyl)-3,4,6,6a-tetrahydro-1H-furo[3,4-c]furan-3a-yl]oxy]-6-(hydroxymethyl)tetrahydropyran-3,4,5-triol

> <PUBCHEM_IUPAC_CAS_NAME>
2-[[3,6-bis(4-hydroxy-3-methoxyphenyl)-3,4,6,6a-tetrahydro-1H-furo[3,4-c]furan-3a-yl]oxy]-6-(hydroxymethyl)oxane-3,4,5-triol

> <PUBCHEM_IUPAC_NAME_MARKUP>
2-[[3,6-bis(4-hydroxy-3-methoxyphenyl)-3,4,6,6<I>a</I>-tetrahydro-1<I>H</I>-furo[3,4-c]furan-3<I>a</I>-yl]oxy]-6-(hydroxymethyl)oxane-3,4,5-triol

> <PUBCHEM_IUPAC_NAME>
2-[[3,6-bis(4-hydroxy-3-methoxyphenyl)-3,4,6,6a-tetrahydro-1H-furo[3,4-c]furan-3a-yl]oxy]-6-(hydroxymethyl)oxane-3,4,5-triol

> <PUBCHEM_IUPAC_SYSTEMATIC_NAME>
2-[[3,6-bis(3-methoxy-4-oxidanyl-phenyl)-3,4,6,6a-tetrahydro-1H-furo[3,4-c]furan-3a-yl]oxy]-6-(hydroxymethyl)oxane-3,4,5-triol

> <PUBCHEM_IUPAC_TRADITIONAL_NAME>
2-[[3,6-bis(4-hydroxy-3-methoxy-phenyl)-3,4,6,6a-tetrahydro-1H-furo[3,4-c]furan-3a-yl]oxy]-6-methylol-tetrahydropyran-3,4,5-triol

> <PUBCHEM_IUPAC_INCHI>
InChI=1S/C26H32O12/c1-33-17-7-12(3-5-15(17)28)23-14-10-35-24(13-4-6-16(29)18(8-13)34-2)26(14,11-36-23)38-25-22(32)21(31)20(30)19(9-27)37-25/h3-8,14,19-25,27-32H,9-11H2,1-2H3

> <PUBCHEM_IUPAC_INCHIKEY>
DRAPQDCEBKBPQE-UHFFFAOYSA-N

> <PUBCHEM_XLOGP3_AA>
-0.4

> <PUBCHEM_EXACT_MASS>
536.189376

> <PUBCHEM_MOLECULAR_FORMULA>
C26H32O12

> <PUBCHEM_MOLECULAR_WEIGHT>
536.5

> <PUBCHEM_OPENEYE_CAN_SMILES>
COC1=C(C=CC(=C1)C2C3COC(C3(CO2)OC4C(C(C(C(O4)CO)O)O)O)C5=CC(=C(C=C5)O)OC)O

> <PUBCHEM_OPENEYE_ISO_SMILES>
COC1=C(C=CC(=C1)C2C3COC(C3(CO2)OC4C(C(C(C(O4)CO)O)O)O)C5=CC(=C(C=C5)O)OC)O

> <PUBCHEM_CACTVS_TPSA>
177

> <PUBCHEM_MONOISOTOPIC_WEIGHT>
536.189376

> <PUBCHEM_TOTAL_CHARGE>
0

> <PUBCHEM_HEAVY_ATOM_COUNT>
38

> <PUBCHEM_ATOM_DEF_STEREO_COUNT>
0

> <PUBCHEM_ATOM_UDEF_STEREO_COUNT>
9

> <PUBCHEM_BOND_DEF_STEREO_COUNT>
0

> <PUBCHEM_BOND_UDEF_STEREO_COUNT>
0

> <PUBCHEM_ISOTOPIC_ATOM_COUNT>
0

> <PUBCHEM_COMPONENT_COUNT>
1

> <PUBCHEM_CACTVS_TAUTO_COUNT>
-1

> <PUBCHEM_COORDINATE_TYPE>
1
5
255

> <PUBCHEM_BONDANNOTATIONS>
13  1  3
19  1  3
14  18  3
15  20  3
16  21  3
20  26  8
20  27  8
21  28  8
21  29  8
24  30  3
26  31  8
27  32  8
28  33  8
29  34  8
31  35  8
32  35  8
33  36  8
34  36  8
22  5  3
23  6  3
25  7  3

$$$$
