146160109
  -OEChem-09112006022D

 61 63  0     1  0  0  0  0  0999 V2000
    8.5991   -0.4610    0.0000 O   0  0  0  0  0  0  0  0  0  0  0  0
   12.0632   -0.4610    0.0000 O   0  0  0  0  0  0  0  0  0  0  0  0
    9.8312    2.4050    0.0000 O   0  0  0  0  0  0  0  0  0  0  0  0
   10.3312   -1.4610    0.0000 O   0  0  0  0  0  0  0  0  0  0  0  0
   11.8312    2.4050    0.0000 O   0  0  0  0  0  0  0  0  0  0  0  0
   10.3312    3.2710    0.0000 O   0  0  0  0  0  0  0  0  0  0  0  0
    7.7331    1.0390    0.0000 O   0  0  0  0  0  0  0  0  0  0  0  0
   12.9292    1.0390    0.0000 O   0  0  0  0  0  0  0  0  0  0  0  0
   16.3933   -2.9610    0.0000 O   0  0  0  0  0  0  0  0  0  0  0  0
    2.5369    0.0390    0.0000 O   0  0  0  0  0  0  0  0  0  0  0  0
    4.2690   -2.9610    0.0000 O   0  0  0  0  0  0  0  0  0  0  0  0
   18.1254   -1.9610    0.0000 O   0  0  0  0  0  0  0  0  0  0  0  0
   10.3312    1.5390    0.0000 C   0  0  2  0  0  0  0  0  0  0  0  0
    9.4651    0.0390    0.0000 C   0  0  3  0  0  0  0  0  0  0  0  0
   11.1972    0.0390    0.0000 C   0  0  3  0  0  0  0  0  0  0  0  0
    9.4651    1.0390    0.0000 C   0  0  0  0  0  0  0  0  0  0  0  0
   11.1972    1.0390    0.0000 C   0  0  0  0  0  0  0  0  0  0  0  0
   10.3312   -0.4610    0.0000 C   0  0  3  0  0  0  0  0  0  0  0  0
   10.8312    2.4050    0.0000 C   0  0  0  0  0  0  0  0  0  0  0  0
    7.7331    0.0390    0.0000 C   0  0  0  0  0  0  0  0  0  0  0  0
   12.9292    0.0390    0.0000 C   0  0  0  0  0  0  0  0  0  0  0  0
    6.8671   -0.4610    0.0000 C   0  0  0  0  0  0  0  0  0  0  0  0
   13.7953   -0.4610    0.0000 C   0  0  0  0  0  0  0  0  0  0  0  0
    6.0010    0.0390    0.0000 C   0  0  0  0  0  0  0  0  0  0  0  0
   14.6613    0.0390    0.0000 C   0  0  0  0  0  0  0  0  0  0  0  0
    5.1350   -0.4610    0.0000 C   0  0  0  0  0  0  0  0  0  0  0  0
   15.5273   -0.4610    0.0000 C   0  0  0  0  0  0  0  0  0  0  0  0
   15.5273   -1.4610    0.0000 C   0  0  0  0  0  0  0  0  0  0  0  0
    5.1350   -1.4610    0.0000 C   0  0  0  0  0  0  0  0  0  0  0  0
    4.2690    0.0390    0.0000 C   0  0  0  0  0  0  0  0  0  0  0  0
   16.3933    0.0390    0.0000 C   0  0  0  0  0  0  0  0  0  0  0  0
   16.3933   -1.9610    0.0000 C   0  0  0  0  0  0  0  0  0  0  0  0
    3.4030   -0.4610    0.0000 C   0  0  0  0  0  0  0  0  0  0  0  0
    4.2690   -1.9610    0.0000 C   0  0  0  0  0  0  0  0  0  0  0  0
   17.2594   -0.4610    0.0000 C   0  0  0  0  0  0  0  0  0  0  0  0
   17.2594   -1.4610    0.0000 C   0  0  0  0  0  0  0  0  0  0  0  0
    3.4030   -1.4610    0.0000 C   0  0  0  0  0  0  0  0  0  0  0  0
    9.4651   -0.5810    0.0000 H   0  0  0  0  0  0  0  0  0  0  0  0
   11.7341    0.3490    0.0000 H   0  0  0  0  0  0  0  0  0  0  0  0
    9.2531    1.6216    0.0000 H   0  0  0  0  0  0  0  0  0  0  0  0
    8.8546    0.9313    0.0000 H   0  0  0  0  0  0  0  0  0  0  0  0
   11.8078    0.9313    0.0000 H   0  0  0  0  0  0  0  0  0  0  0  0
   11.4092    1.6216    0.0000 H   0  0  0  0  0  0  0  0  0  0  0  0
   10.8681   -0.7710    0.0000 H   0  0  0  0  0  0  0  0  0  0  0  0
    9.2112    2.4050    0.0000 H   0  0  0  0  0  0  0  0  0  0  0  0
    9.7942   -1.7710    0.0000 H   0  0  0  0  0  0  0  0  0  0  0  0
   12.1412    2.9419    0.0000 H   0  0  0  0  0  0  0  0  0  0  0  0
    6.8671   -1.0810    0.0000 H   0  0  0  0  0  0  0  0  0  0  0  0
   13.7953   -1.0810    0.0000 H   0  0  0  0  0  0  0  0  0  0  0  0
    6.0010    0.6590    0.0000 H   0  0  0  0  0  0  0  0  0  0  0  0
   14.6613    0.6590    0.0000 H   0  0  0  0  0  0  0  0  0  0  0  0
   14.9904   -1.7710    0.0000 H   0  0  0  0  0  0  0  0  0  0  0  0
    5.6720   -1.7710    0.0000 H   0  0  0  0  0  0  0  0  0  0  0  0
    4.2690    0.6590    0.0000 H   0  0  0  0  0  0  0  0  0  0  0  0
   16.3933    0.6590    0.0000 H   0  0  0  0  0  0  0  0  0  0  0  0
   17.7963   -0.1510    0.0000 H   0  0  0  0  0  0  0  0  0  0  0  0
    2.8660   -1.7710    0.0000 H   0  0  0  0  0  0  0  0  0  0  0  0
   16.9303   -3.2710    0.0000 H   0  0  0  0  0  0  0  0  0  0  0  0
    2.0000   -0.2710    0.0000 H   0  0  0  0  0  0  0  0  0  0  0  0
    3.7320   -3.2710    0.0000 H   0  0  0  0  0  0  0  0  0  0  0  0
   18.6623   -1.6510    0.0000 H   0  0  0  0  0  0  0  0  0  0  0  0
  1 14  1  0  0  0  0
  1 20  1  0  0  0  0
  2 15  1  0  0  0  0
  2 21  1  0  0  0  0
 13  3  1  1  0  0  0
  3 45  1  0  0  0  0
  4 18  1  0  0  0  0
  4 46  1  0  0  0  0
  5 19  1  0  0  0  0
  5 47  1  0  0  0  0
  6 19  2  0  0  0  0
  7 20  2  0  0  0  0
  8 21  2  0  0  0  0
  9 32  1  0  0  0  0
  9 58  1  0  0  0  0
 10 33  1  0  0  0  0
 10 59  1  0  0  0  0
 11 34  1  0  0  0  0
 11 60  1  0  0  0  0
 12 36  1  0  0  0  0
 12 61  1  0  0  0  0
 13 16  1  0  0  0  0
 13 17  1  0  0  0  0
 13 19  1  0  0  0  0
 14 16  1  0  0  0  0
 14 18  1  0  0  0  0
 14 38  1  0  0  0  0
 15 17  1  0  0  0  0
 15 18  1  0  0  0  0
 15 39  1  0  0  0  0
 16 40  1  0  0  0  0
 16 41  1  0  0  0  0
 17 42  1  0  0  0  0
 17 43  1  0  0  0  0
 18 44  1  0  0  0  0
 20 22  1  0  0  0  0
 21 23  1  0  0  0  0
 22 24  2  3  0  0  0
 22 48  1  0  0  0  0
 23 25  2  3  0  0  0
 23 49  1  0  0  0  0
 24 26  1  0  0  0  0
 24 50  1  0  0  0  0
 25 27  1  0  0  0  0
 25 51  1  0  0  0  0
 26 29  2  0  0  0  0
 26 30  1  0  0  0  0
 27 28  2  0  0  0  0
 27 31  1  0  0  0  0
 28 32  1  0  0  0  0
 28 52  1  0  0  0  0
 29 34  1  0  0  0  0
 29 53  1  0  0  0  0
 30 33  2  0  0  0  0
 30 54  1  0  0  0  0
 31 35  2  0  0  0  0
 31 55  1  0  0  0  0
 32 36  2  0  0  0  0
 33 37  1  0  0  0  0
 34 37  2  0  0  0  0
 35 36  1  0  0  0  0
 35 56  1  0  0  0  0
 37 57  1  0  0  0  0
M  END
> <PUBCHEM_COMPOUND_CID>
146160109

> <PUBCHEM_COMPOUND_CANONICALIZED>
1

> <PUBCHEM_CACTVS_COMPLEXITY>
877

> <PUBCHEM_CACTVS_HBOND_ACCEPTOR>
12

> <PUBCHEM_CACTVS_HBOND_DONOR>
7

> <PUBCHEM_CACTVS_ROTATABLE_BOND>
9

> <PUBCHEM_CACTVS_SUBSKEYS>
AAADceB4PAAAAAAAAAAAAAAAAAAAAAAAAAAwYMAAAAAAAAABQAAAGgAACAAADFSgmAIwDoAABgCIAiDSCAICAAAgIAAIiAFGiMgJNzKCMRKCcAElwBULuYfK7DzOIAABCAAAQABCAAIQAACAAAAAAAAAAA==

> <PUBCHEM_IUPAC_OPENEYE_NAME>
(1S)-3-[3-(3,4-dihydroxyphenyl)prop-2-enoyloxy]-5-[3-(3,5-dihydroxyphenyl)prop-2-enoyloxy]-1,4-dihydroxy-cyclohexanecarboxylic acid

> <PUBCHEM_IUPAC_CAS_NAME>
(1S)-3-[3-(3,4-dihydroxyphenyl)-1-oxoprop-2-enoxy]-5-[3-(3,5-dihydroxyphenyl)-1-oxoprop-2-enoxy]-1,4-dihydroxy-1-cyclohexanecarboxylic acid

> <PUBCHEM_IUPAC_NAME_MARKUP>
(1<I>S</I>)-3-[3-(3,4-dihydroxyphenyl)prop-2-enoyloxy]-5-[3-(3,5-dihydroxyphenyl)prop-2-enoyloxy]-1,4-dihydroxycyclohexane-1-carboxylic acid

> <PUBCHEM_IUPAC_NAME>
(1S)-3-[3-(3,4-dihydroxyphenyl)prop-2-enoyloxy]-5-[3-(3,5-dihydroxyphenyl)prop-2-enoyloxy]-1,4-dihydroxycyclohexane-1-carboxylic acid

> <PUBCHEM_IUPAC_SYSTEMATIC_NAME>
(1S)-3-[3-[3,4-bis(oxidanyl)phenyl]prop-2-enoyloxy]-5-[3-[3,5-bis(oxidanyl)phenyl]prop-2-enoyloxy]-1,4-bis(oxidanyl)cyclohexane-1-carboxylic acid

> <PUBCHEM_IUPAC_TRADITIONAL_NAME>
(1S)-3-caffeoyloxy-5-[3-(3,5-dihydroxyphenyl)acryloyl]oxy-1,4-dihydroxy-cyclohexanecarboxylic acid

> <PUBCHEM_IUPAC_INCHI>
InChI=1S/C25H24O12/c26-15-7-14(8-16(27)10-15)3-6-22(31)37-20-12-25(35,24(33)34)11-19(23(20)32)36-21(30)5-2-13-1-4-17(28)18(29)9-13/h1-10,19-20,23,26-29,32,35H,11-12H2,(H,33,34)/t19?,20?,23?,25-/m0/s1

> <PUBCHEM_IUPAC_INCHIKEY>
ANQFOPPBTWJXIJ-VCFKWBLOSA-N

> <PUBCHEM_XLOGP3_AA>
1.5

> <PUBCHEM_EXACT_MASS>
516.126776

> <PUBCHEM_MOLECULAR_FORMULA>
C25H24O12

> <PUBCHEM_MOLECULAR_WEIGHT>
516.4

> <PUBCHEM_OPENEYE_CAN_SMILES>
C1C(C(C(CC1(C(=O)O)O)OC(=O)C=CC2=CC(=CC(=C2)O)O)O)OC(=O)C=CC3=CC(=C(C=C3)O)O

> <PUBCHEM_OPENEYE_ISO_SMILES>
C1C(C(C(C[C@@]1(C(=O)O)O)OC(=O)C=CC2=CC(=CC(=C2)O)O)O)OC(=O)C=CC3=CC(=C(C=C3)O)O

> <PUBCHEM_CACTVS_TPSA>
211

> <PUBCHEM_MONOISOTOPIC_WEIGHT>
516.126776

> <PUBCHEM_TOTAL_CHARGE>
0

> <PUBCHEM_HEAVY_ATOM_COUNT>
37

> <PUBCHEM_ATOM_DEF_STEREO_COUNT>
1

> <PUBCHEM_ATOM_UDEF_STEREO_COUNT>
3

> <PUBCHEM_BOND_DEF_STEREO_COUNT>
0

> <PUBCHEM_BOND_UDEF_STEREO_COUNT>
2

> <PUBCHEM_ISOTOPIC_ATOM_COUNT>
0

> <PUBCHEM_COMPONENT_COUNT>
1

> <PUBCHEM_CACTVS_TAUTO_COUNT>
-1

> <PUBCHEM_COORDINATE_TYPE>
1
5
255

> <PUBCHEM_BONDANNOTATIONS>
14  1  3
15  2  3
22  24  1
23  25  1
26  29  8
26  30  8
27  28  8
27  31  8
28  32  8
29  34  8
13  3  5
30  33  8
31  35  8
32  36  8
33  37  8
34  37  8
35  36  8
18  4  3

$$$$
