59052302
  -OEChem-09032009372D

104113  0     1  0  0  0  0  0999 V2000
   12.0185    2.0669    0.0000 O   0  0  0  0  0  0  0  0  0  0  0  0
   10.7158    1.4377    0.0000 O   0  0  0  0  0  0  0  0  0  0  0  0
    3.1160    2.1227    0.0000 O   0  0  0  0  0  0  0  0  0  0  0  0
   11.2834   -2.5664    0.0000 O   0  0  0  0  0  0  0  0  0  0  0  0
    3.6952   -1.3617    0.0000 O   0  0  0  0  0  0  0  0  0  0  0  0
   15.8551    2.6168    0.0000 N   0  0  3  0  0  0  0  0  0  0  0  0
   16.9082   -1.1431    0.0000 N   0  0  0  0  0  0  0  0  0  0  0  0
    6.9572    2.6384    0.0000 N   0  0  3  0  0  0  0  0  0  0  0  0
    7.9770   -1.1306    0.0000 N   0  0  0  0  0  0  0  0  0  0  0  0
   13.3473    0.4806    0.0000 C   0  0  2  0  0  0  0  0  0  0  0  0
   13.6974    1.4173    0.0000 C   0  0  2  0  0  0  0  0  0  0  0  0
   15.1272    1.6277    0.0000 C   0  0  2  0  0  0  0  0  0  0  0  0
   12.3228    0.2927    0.0000 C   0  0  2  0  0  0  0  0  0  0  0  0
   15.3946    0.6641    0.0000 C   0  0  1  0  0  0  0  0  0  0  0  0
   14.1300   -0.1418    0.0000 C   0  0  0  0  0  0  0  0  0  0  0  0
   17.1631    1.3346    0.0000 C   0  0  0  0  0  0  0  0  0  0  0  0
   13.0471    2.2311    0.0000 C   0  0  0  0  0  0  0  0  0  0  0  0
   11.6539    1.0912    0.0000 C   0  0  2  0  0  0  0  0  0  0  0  0
   16.6232   -0.1907    0.0000 C   0  0  0  0  0  0  0  0  0  0  0  0
   17.4473    0.3758    0.0000 C   0  0  0  0  0  0  0  0  0  0  0  0
   11.9835   -0.6480    0.0000 C   0  0  0  0  0  0  0  0  0  0  0  0
    6.2206    1.6558    0.0000 C   0  0  2  0  0  0  0  0  0  0  0  0
    4.7890    1.4582    0.0000 C   0  0  1  0  0  0  0  0  0  0  0  0
    6.4794    0.6899    0.0000 C   0  0  1  0  0  0  0  0  0  0  0  0
    4.4306    0.5246    0.0000 C   0  0  1  0  0  0  0  0  0  0  0  0
   16.3473    3.4872    0.0000 C   0  0  0  0  0  0  0  0  0  0  0  0
    5.2078   -0.1047    0.0000 C   0  0  0  0  0  0  0  0  0  0  0  0
    8.2539    1.3447    0.0000 C   0  0  0  0  0  0  0  0  0  0  0  0
   18.2345   -0.2313    0.0000 C   0  0  0  0  0  0  0  0  0  0  0  0
    7.7005   -0.1758    0.0000 C   0  0  0  0  0  0  0  0  0  0  0  0
    8.5295    0.3834    0.0000 C   0  0  0  0  0  0  0  0  0  0  0  0
   10.8848    0.4520    0.0000 C   0  0  0  0  0  0  0  0  0  0  0  0
   10.9993   -0.8246    0.0000 C   0  0  0  0  0  0  0  0  0  0  0  0
   17.9020   -1.1681    0.0000 C   0  0  0  0  0  0  0  0  0  0  0  0
    9.3112   -0.2306    0.0000 C   0  0  0  0  0  0  0  0  0  0  0  0
    4.1460    2.2777    0.0000 C   0  0  0  0  0  0  0  0  0  0  0  0
    8.9704   -1.1644    0.0000 C   0  0  0  0  0  0  0  0  0  0  0  0
   10.3283   -0.0360    0.0000 C   0  0  0  0  0  0  0  0  0  0  0  0
    3.4044    0.3458    0.0000 C   0  0  0  0  0  0  0  0  0  0  0  0
   10.6443   -1.7973    0.0000 C   0  0  0  0  0  0  0  0  0  0  0  0
    7.4572    3.5045    0.0000 C   0  0  0  0  0  0  0  0  0  0  0  0
   16.3009   -1.9376    0.0000 C   0  0  0  0  0  0  0  0  0  0  0  0
   19.2497   -0.0276    0.0000 C   0  0  0  0  0  0  0  0  0  0  0  0
    9.6230   -1.9684    0.0000 C   0  0  0  0  0  0  0  0  0  0  0  0
   18.5616   -1.9662    0.0000 C   0  0  0  0  0  0  0  0  0  0  0  0
    2.7427    1.1502    0.0000 C   0  0  0  0  0  0  0  0  0  0  0  0
    7.3626   -1.9197    0.0000 C   0  0  0  0  0  0  0  0  0  0  0  0
    3.0569   -0.5919    0.0000 C   0  0  0  0  0  0  0  0  0  0  0  0
   19.9277   -0.8103    0.0000 C   0  0  0  0  0  0  0  0  0  0  0  0
   19.5813   -1.7861    0.0000 C   0  0  0  0  0  0  0  0  0  0  0  0
    2.0711   -0.7597    0.0000 C   0  0  0  0  0  0  0  0  0  0  0  0
   10.9370   -3.5045    0.0000 C   0  0  0  0  0  0  0  0  0  0  0  0
   13.0497   -0.3156    0.0000 H   0  0  0  0  0  0  0  0  0  0  0  0
   13.9949    2.2135    0.0000 H   0  0  0  0  0  0  0  0  0  0  0  0
   14.8999    2.4467    0.0000 H   0  0  0  0  0  0  0  0  0  0  0  0
   12.7236   -0.1803    0.0000 H   0  0  0  0  0  0  0  0  0  0  0  0
   15.6219   -0.1550    0.0000 H   0  0  0  0  0  0  0  0  0  0  0  0
   14.5188   -0.6247    0.0000 H   0  0  0  0  0  0  0  0  0  0  0  0
   13.6929   -0.5816    0.0000 H   0  0  0  0  0  0  0  0  0  0  0  0
   17.1627    1.9546    0.0000 H   0  0  0  0  0  0  0  0  0  0  0  0
   17.7767    1.4238    0.0000 H   0  0  0  0  0  0  0  0  0  0  0  0
   12.8461    2.8176    0.0000 H   0  0  0  0  0  0  0  0  0  0  0  0
   13.5906    2.5295    0.0000 H   0  0  0  0  0  0  0  0  0  0  0  0
   12.5944   -0.7539    0.0000 H   0  0  0  0  0  0  0  0  0  0  0  0
   11.9854   -1.2680    0.0000 H   0  0  0  0  0  0  0  0  0  0  0  0
    6.0006    2.4769    0.0000 H   0  0  0  0  0  0  0  0  0  0  0  0
    5.0936    2.2517    0.0000 H   0  0  0  0  0  0  0  0  0  0  0  0
    6.6994   -0.1311    0.0000 H   0  0  0  0  0  0  0  0  0  0  0  0
    4.1260   -0.2690    0.0000 H   0  0  0  0  0  0  0  0  0  0  0  0
   15.8077    3.7924    0.0000 H   0  0  0  0  0  0  0  0  0  0  0  0
   16.6526    4.0269    0.0000 H   0  0  0  0  0  0  0  0  0  0  0  0
   16.8870    3.1820    0.0000 H   0  0  0  0  0  0  0  0  0  0  0  0
    5.5923   -0.5911    0.0000 H   0  0  0  0  0  0  0  0  0  0  0  0
    4.7668   -0.5406    0.0000 H   0  0  0  0  0  0  0  0  0  0  0  0
    8.2589    1.9647    0.0000 H   0  0  0  0  0  0  0  0  0  0  0  0
    8.8682    1.4285    0.0000 H   0  0  0  0  0  0  0  0  0  0  0  0
   11.2811   -0.0248    0.0000 H   0  0  0  0  0  0  0  0  0  0  0  0
   10.4080    0.0557    0.0000 H   0  0  0  0  0  0  0  0  0  0  0  0
   10.4885    0.9289    0.0000 H   0  0  0  0  0  0  0  0  0  0  0  0
    3.9502    2.8659    0.0000 H   0  0  0  0  0  0  0  0  0  0  0  0
    4.6921    2.5713    0.0000 H   0  0  0  0  0  0  0  0  0  0  0  0
   10.6110    2.0487    0.0000 H   0  0  0  0  0  0  0  0  0  0  0  0
   10.5341    0.5489    0.0000 H   0  0  0  0  0  0  0  0  0  0  0  0
    6.9203    3.8145    0.0000 H   0  0  0  0  0  0  0  0  0  0  0  0
    7.7672    4.0414    0.0000 H   0  0  0  0  0  0  0  0  0  0  0  0
    7.9942    3.1945    0.0000 H   0  0  0  0  0  0  0  0  0  0  0  0
   16.7935   -2.3141    0.0000 H   0  0  0  0  0  0  0  0  0  0  0  0
   15.9244   -2.4302    0.0000 H   0  0  0  0  0  0  0  0  0  0  0  0
   15.8083   -1.5611    0.0000 H   0  0  0  0  0  0  0  0  0  0  0  0
   19.4503    0.5590    0.0000 H   0  0  0  0  0  0  0  0  0  0  0  0
    9.4038   -2.5483    0.0000 H   0  0  0  0  0  0  0  0  0  0  0  0
   18.3475   -2.5480    0.0000 H   0  0  0  0  0  0  0  0  0  0  0  0
    2.1307    1.0509    0.0000 H   0  0  0  0  0  0  0  0  0  0  0  0
    7.8519   -2.3006    0.0000 H   0  0  0  0  0  0  0  0  0  0  0  0
    6.9818   -2.4089    0.0000 H   0  0  0  0  0  0  0  0  0  0  0  0
    6.8734   -1.5388    0.0000 H   0  0  0  0  0  0  0  0  0  0  0  0
   20.5369   -0.6954    0.0000 H   0  0  0  0  0  0  0  0  0  0  0  0
   19.9818   -2.2594    0.0000 H   0  0  0  0  0  0  0  0  0  0  0  0
    2.1751   -1.3709    0.0000 H   0  0  0  0  0  0  0  0  0  0  0  0
    1.4599   -0.8638    0.0000 H   0  0  0  0  0  0  0  0  0  0  0  0
    1.9670   -0.1485    0.0000 H   0  0  0  0  0  0  0  0  0  0  0  0
   11.5186   -3.7193    0.0000 H   0  0  0  0  0  0  0  0  0  0  0  0
   10.7222   -4.0861    0.0000 H   0  0  0  0  0  0  0  0  0  0  0  0
   10.3554   -3.2897    0.0000 H   0  0  0  0  0  0  0  0  0  0  0  0
  1 17  1  0  0  0  0
  1 18  1  0  0  0  0
 18  2  1  1  0  0  0
  2 82  1  0  0  0  0
  3 36  1  0  0  0  0
  3 46  1  0  0  0  0
  4 40  1  0  0  0  0
  4 52  1  0  0  0  0
  5 48  2  0  0  0  0
  6 12  1  0  0  0  0
  6 14  1  0  0  0  0
  6 26  1  0  0  0  0
  7 19  1  0  0  0  0
  7 34  1  0  0  0  0
  7 42  1  0  0  0  0
  8 22  1  0  0  0  0
  8 24  1  0  0  0  0
  8 41  1  0  0  0  0
  9 30  1  0  0  0  0
  9 37  1  0  0  0  0
  9 47  1  0  0  0  0
 10 11  1  0  0  0  0
 10 13  1  0  0  0  0
 10 15  1  0  0  0  0
 10 53  1  6  0  0  0
 11 12  1  0  0  0  0
 11 17  1  0  0  0  0
 11 54  1  6  0  0  0
 12 16  1  0  0  0  0
 12 55  1  6  0  0  0
 13 18  1  0  0  0  0
 13 21  1  1  0  0  0
 13 56  1  0  0  0  0
 14 15  1  0  0  0  0
 14 19  1  0  0  0  0
 14 57  1  1  0  0  0
 15 58  1  0  0  0  0
 15 59  1  0  0  0  0
 16 20  1  0  0  0  0
 16 60  1  0  0  0  0
 16 61  1  0  0  0  0
 17 62  1  0  0  0  0
 17 63  1  0  0  0  0
 18 32  1  0  0  0  0
 19 20  2  0  0  0  0
 20 29  1  0  0  0  0
 21 33  1  0  0  0  0
 21 64  1  0  0  0  0
 21 65  1  0  0  0  0
 22 23  1  0  0  0  0
 22 28  1  0  0  0  0
 22 66  1  6  0  0  0
 23 25  1  0  0  0  0
 23 36  1  0  0  0  0
 23 67  1  6  0  0  0
 24 27  1  0  0  0  0
 24 30  1  0  0  0  0
 24 68  1  1  0  0  0
 25 27  1  0  0  0  0
 25 39  1  0  0  0  0
 25 69  1  6  0  0  0
 26 70  1  0  0  0  0
 26 71  1  0  0  0  0
 26 72  1  0  0  0  0
 27 73  1  0  0  0  0
 27 74  1  0  0  0  0
 28 31  1  0  0  0  0
 28 75  1  0  0  0  0
 28 76  1  0  0  0  0
 29 34  1  0  0  0  0
 29 43  2  0  0  0  0
 30 31  2  0  0  0  0
 31 35  1  0  0  0  0
 32 77  1  0  0  0  0
 32 78  1  0  0  0  0
 32 79  1  0  0  0  0
 33 38  2  0  0  0  0
 33 40  1  0  0  0  0
 34 45  2  0  0  0  0
 35 37  2  0  0  0  0
 35 38  1  0  0  0  0
 36 80  1  0  0  0  0
 36 81  1  0  0  0  0
 37 44  1  0  0  0  0
 38 83  1  0  0  0  0
 39 46  2  0  0  0  0
 39 48  1  0  0  0  0
 40 44  2  0  0  0  0
 41 84  1  0  0  0  0
 41 85  1  0  0  0  0
 41 86  1  0  0  0  0
 42 87  1  0  0  0  0
 42 88  1  0  0  0  0
 42 89  1  0  0  0  0
 43 49  1  0  0  0  0
 43 90  1  0  0  0  0
 44 91  1  0  0  0  0
 45 50  1  0  0  0  0
 45 92  1  0  0  0  0
 46 93  1  0  0  0  0
 47 94  1  0  0  0  0
 47 95  1  0  0  0  0
 47 96  1  0  0  0  0
 48 51  1  0  0  0  0
 49 50  2  0  0  0  0
 49 97  1  0  0  0  0
 50 98  1  0  0  0  0
 51 99  1  0  0  0  0
 51100  1  0  0  0  0
 51101  1  0  0  0  0
 52102  1  0  0  0  0
 52103  1  0  0  0  0
 52104  1  0  0  0  0
M  END
> <PUBCHEM_COMPOUND_CID>
59052302

> <PUBCHEM_COMPOUND_CANONICALIZED>
1

> <PUBCHEM_CACTVS_COMPLEXITY>
1440

> <PUBCHEM_CACTVS_HBOND_ACCEPTOR>
7

> <PUBCHEM_CACTVS_HBOND_DONOR>
1

> <PUBCHEM_CACTVS_ROTATABLE_BOND>
4

> <PUBCHEM_CACTVS_SUBSKEYS>
AAADcfB/uAAAAAAAAAAAAAAAAAAAAWLAAAA8eLFiQAAYMFix/gAAHgAACAAADSzhngYyzvMMFgCoA6RyRACCiCAhIiAI2CE+bNgcZvLEsZuWcChmwBnM6IeY/f+eqAACAgAKAABQAAQEABQAAAAAAAAAAA==

> <PUBCHEM_IUPAC_OPENEYE_NAME>
1-[(1S,12S,13R,18R)-7-[[(1S,12S,13R,16S,17R,18R)-16-hydroxy-3,16,20-trimethyl-15-oxa-3,20-diazapentacyclo[10.7.1.02,10.04,9.013,18]icosa-2(10),4,6,8-tetraen-17-yl]methyl]-6-methoxy-3,20-dimethyl-15-oxa-3,20-diazapentacyclo[10.7.1.02,10.04,9.013,18]icosa-2(10),4(9),5,7,16-pentaen-17-yl]ethanone

> <PUBCHEM_IUPAC_CAS_NAME>
1-[(1S,12S,13R,18R)-7-[[(1S,12S,13R,16S,17R,18R)-16-hydroxy-3,16,20-trimethyl-15-oxa-3,20-diazapentacyclo[10.7.1.02,10.04,9.013,18]eicosa-2(10),4,6,8-tetraen-17-yl]methyl]-6-methoxy-3,20-dimethyl-15-oxa-3,20-diazapentacyclo[10.7.1.02,10.04,9.013,18]eicosa-2(10),4(9),5,7,16-pentaen-17-yl]ethanone

> <PUBCHEM_IUPAC_NAME_MARKUP>
1-[(1<I>S</I>,12<I>S</I>,13<I>R</I>,18<I>R</I>)-7-[[(1<I>S</I>,12<I>S</I>,13<I>R</I>,16<I>S</I>,17<I>R</I>,18<I>R</I>)-16-hydroxy-3,16,20-trimethyl-15-oxa-3,20-diazapentacyclo[10.7.1.0<SUP>2,10</SUP>.0<SUP>4,9</SUP>.0<SUP>13,18</SUP>]icosa-2(10),4,6,8-tetraen-17-yl]methyl]-6-methoxy-3,20-dimethyl-15-oxa-3,20-diazapentacyclo[10.7.1.0<SUP>2,10</SUP>.0<SUP>4,9</SUP>.0<SUP>13,18</SUP>]icosa-2(10),4(9),5,7,16-pentaen-17-yl]ethanone

> <PUBCHEM_IUPAC_NAME>
1-[(1S,12S,13R,18R)-7-[[(1S,12S,13R,16S,17R,18R)-16-hydroxy-3,16,20-trimethyl-15-oxa-3,20-diazapentacyclo[10.7.1.02,10.04,9.013,18]icosa-2(10),4,6,8-tetraen-17-yl]methyl]-6-methoxy-3,20-dimethyl-15-oxa-3,20-diazapentacyclo[10.7.1.02,10.04,9.013,18]icosa-2(10),4(9),5,7,16-pentaen-17-yl]ethanone

> <PUBCHEM_IUPAC_SYSTEMATIC_NAME>
1-[(1S,12S,13R,18R)-6-methoxy-3,20-dimethyl-7-[[(1S,12S,13R,16S,17R,18R)-3,16,20-trimethyl-16-oxidanyl-15-oxa-3,20-diazapentacyclo[10.7.1.02,10.04,9.013,18]icosa-2(10),4,6,8-tetraen-17-yl]methyl]-15-oxa-3,20-diazapentacyclo[10.7.1.02,10.04,9.013,18]icosa-2(10),4(9),5,7,16-pentaen-17-yl]ethanone

> <PUBCHEM_IUPAC_TRADITIONAL_NAME>
1-[(1S,12S,13R,18R)-7-[[(1S,12S,13R,16S,17R,18R)-16-hydroxy-3,16,20-trimethyl-15-oxa-3,20-diazapentacyclo[10.7.1.02,10.04,9.013,18]eicosa-2(10),4,6,8-tetraen-17-yl]methyl]-6-methoxy-3,20-dimethyl-15-oxa-3,20-diazapentacyclo[10.7.1.02,10.04,9.013,18]eicosa-2(10),4(9),5,7,16-pentaen-17-yl]ethanone

> <PUBCHEM_IUPAC_INCHI>
InChI=1S/C43H52N4O5/c1-22(48)30-19-51-20-31-25(30)14-38-42-29(17-35(31)44(38)3)27-12-23(40(50-7)18-37(27)47(42)6)13-33-26-15-39-41-28(24-10-8-9-11-34(24)46(41)5)16-36(45(39)4)32(26)21-52-43(33,2)49/h8-12,18-19,25-26,31-33,35-36,38-39,49H,13-17,20-21H2,1-7H3/t25-,26+,31+,32+,33+,35-,36-,38-,39-,43-/m0/s1

> <PUBCHEM_IUPAC_INCHIKEY>
JGXFRVOHTXTCCH-ODTJQGTCSA-N

> <PUBCHEM_XLOGP3_AA>
4.4

> <PUBCHEM_EXACT_MASS>
704.393771

> <PUBCHEM_MOLECULAR_FORMULA>
C43H52N4O5

> <PUBCHEM_MOLECULAR_WEIGHT>
704.9

> <PUBCHEM_OPENEYE_CAN_SMILES>
CC(=O)C1=COCC2C1CC3C4=C(CC2N3C)C5=C(N4C)C=C(C(=C5)CC6C7CC8C9=C(CC(C7COC6(C)O)N8C)C1=CC=CC=C1N9C)OC

> <PUBCHEM_OPENEYE_ISO_SMILES>
CC(=O)C1=COC[C@@H]2[C@H]1C[C@H]3C4=C(C[C@@H]2N3C)C5=C(N4C)C=C(C(=C5)C[C@@H]6[C@@H]7C[C@H]8C9=C(C[C@@H]([C@@H]7CO[C@]6(C)O)N8C)C1=CC=CC=C1N9C)OC

> <PUBCHEM_CACTVS_TPSA>
81.3

> <PUBCHEM_MONOISOTOPIC_WEIGHT>
704.393771

> <PUBCHEM_TOTAL_CHARGE>
0

> <PUBCHEM_HEAVY_ATOM_COUNT>
52

> <PUBCHEM_ATOM_DEF_STEREO_COUNT>
10

> <PUBCHEM_ATOM_UDEF_STEREO_COUNT>
0

> <PUBCHEM_BOND_DEF_STEREO_COUNT>
0

> <PUBCHEM_BOND_UDEF_STEREO_COUNT>
0

> <PUBCHEM_ISOTOPIC_ATOM_COUNT>
0

> <PUBCHEM_COMPONENT_COUNT>
1

> <PUBCHEM_CACTVS_TAUTO_COUNT>
-1

> <PUBCHEM_COORDINATE_TYPE>
1
5
255

> <PUBCHEM_BONDANNOTATIONS>
10  53  6
11  54  6
12  55  6
13  21  5
14  57  5
19  20  8
18  2  5
20  29  8
22  66  6
23  67  6
24  68  5
25  69  6
29  34  8
29  43  8
30  31  8
31  35  8
33  38  8
33  40  8
34  45  8
35  37  8
35  38  8
37  44  8
40  44  8
43  49  8
45  50  8
49  50  8
7  19  8
7  34  8
9  30  8
9  37  8

$$$$
