5320580
  -OEChem-09022016412D

 47 52  0     1  0  0  0  0  0999 V2000
    5.0805    1.4544    0.0000 O   0  0  0  0  0  0  0  0  0  0  0  0
    5.9642    1.2654    0.0000 O   0  0  0  0  0  0  0  0  0  0  0  0
    7.6578    0.9025    0.0000 O   0  0  0  0  0  0  0  0  0  0  0  0
    6.0235   -0.0801    0.0000 N   0  0  3  0  0  0  0  0  0  0  0  0
    4.3106   -1.6536    0.0000 N   0  0  0  0  0  0  0  0  0  0  0  0
    4.3106   -0.2602    0.0000 C   0  0  3  0  0  0  0  0  0  0  0  0
    4.8168   -0.9569    0.0000 C   0  0  3  0  0  0  0  0  0  0  0  0
    5.6732   -0.8668    0.0000 C   0  0  3  0  0  0  0  0  0  0  0  0
    6.4966   -0.3828    0.0000 C   0  0  3  0  0  0  0  0  0  0  0  0
    5.5173    0.6166    0.0000 C   0  0  3  0  0  0  0  0  0  0  0  0
    4.6608    0.5265    0.0000 C   0  0  0  0  0  0  0  0  0  0  0  0
    7.0358   -1.4735    0.0000 C   0  0  3  0  0  0  0  0  0  0  0  0
    6.1794   -1.5636    0.0000 C   0  0  0  0  0  0  0  0  0  0  0  0
    3.4916   -0.5263    0.0000 C   0  0  0  0  0  0  0  0  0  0  0  0
    6.8799    0.0099    0.0000 C   0  0  0  0  0  0  0  0  0  0  0  0
    7.3861   -0.6868    0.0000 C   0  0  0  0  0  0  0  0  0  0  0  0
    3.4916   -1.3874    0.0000 C   0  0  0  0  0  0  0  0  0  0  0  0
    6.7062    0.5950    0.0000 C   0  0  0  0  0  0  0  0  0  0  0  0
    2.7458   -0.0957    0.0000 C   0  0  0  0  0  0  0  0  0  0  0  0
    8.3806   -0.5823    0.0000 C   0  0  0  0  0  0  0  0  0  0  0  0
    2.7458   -1.8180    0.0000 C   0  0  0  0  0  0  0  0  0  0  0  0
    2.0000   -0.5263    0.0000 C   0  0  0  0  0  0  0  0  0  0  0  0
    2.0000   -1.3874    0.0000 C   0  0  0  0  0  0  0  0  0  0  0  0
    8.9684   -1.3913    0.0000 C   0  0  0  0  0  0  0  0  0  0  0  0
    6.1737    2.2432    0.0000 C   0  0  0  0  0  0  0  0  0  0  0  0
    6.2898   -0.8020    0.0000 H   0  0  0  0  0  0  0  0  0  0  0  0
    7.1119   -0.3061    0.0000 H   0  0  0  0  0  0  0  0  0  0  0  0
    6.0444    0.9430    0.0000 H   0  0  0  0  0  0  0  0  0  0  0  0
    4.7041    1.1450    0.0000 H   0  0  0  0  0  0  0  0  0  0  0  0
    4.0593    0.6765    0.0000 H   0  0  0  0  0  0  0  0  0  0  0  0
    7.4003   -1.9751    0.0000 H   0  0  0  0  0  0  0  0  0  0  0  0
    5.6221   -1.8353    0.0000 H   0  0  0  0  0  0  0  0  0  0  0  0
    6.3503   -2.1595    0.0000 H   0  0  0  0  0  0  0  0  0  0  0  0
    4.5022   -2.2432    0.0000 H   0  0  0  0  0  0  0  0  0  0  0  0
    7.4372    0.2817    0.0000 H   0  0  0  0  0  0  0  0  0  0  0  0
    6.7090    0.6059    0.0000 H   0  0  0  0  0  0  0  0  0  0  0  0
    2.7458    0.5243    0.0000 H   0  0  0  0  0  0  0  0  0  0  0  0
    8.6328   -0.0159    0.0000 H   0  0  0  0  0  0  0  0  0  0  0  0
    2.7458   -2.4380    0.0000 H   0  0  0  0  0  0  0  0  0  0  0  0
    1.4631   -0.2163    0.0000 H   0  0  0  0  0  0  0  0  0  0  0  0
    1.4631   -1.6974    0.0000 H   0  0  0  0  0  0  0  0  0  0  0  0
    8.4668   -1.7557    0.0000 H   0  0  0  0  0  0  0  0  0  0  0  0
    9.3328   -1.8929    0.0000 H   0  0  0  0  0  0  0  0  0  0  0  0
    9.4700   -1.0269    0.0000 H   0  0  0  0  0  0  0  0  0  0  0  0
    6.7799    2.1133    0.0000 H   0  0  0  0  0  0  0  0  0  0  0  0
    6.3036    2.8494    0.0000 H   0  0  0  0  0  0  0  0  0  0  0  0
    5.5675    2.3731    0.0000 H   0  0  0  0  0  0  0  0  0  0  0  0
  1  7  1  0  0  0  0
  1 10  1  0  0  0  0
  2 18  1  0  0  0  0
  2 25  1  0  0  0  0
  3 18  2  0  0  0  0
  4  8  1  0  0  0  0
  4 10  1  0  0  0  0
  4 15  1  0  0  0  0
  5  7  1  0  0  0  0
  5 17  1  0  0  0  0
  5 34  1  0  0  0  0
  6  7  1  0  0  0  0
  6  9  1  0  0  0  0
  6 11  1  0  0  0  0
  6 14  1  0  0  0  0
  7  8  1  0  0  0  0
  8 13  1  0  0  0  0
  8 26  1  0  0  0  0
  9 12  1  0  0  0  0
  9 18  1  0  0  0  0
  9 27  1  0  0  0  0
 10 11  1  0  0  0  0
 10 28  1  0  0  0  0
 11 29  1  0  0  0  0
 11 30  1  0  0  0  0
 12 13  1  0  0  0  0
 12 16  1  0  0  0  0
 12 31  1  0  0  0  0
 13 32  1  0  0  0  0
 13 33  1  0  0  0  0
 14 17  1  0  0  0  0
 14 19  2  0  0  0  0
 15 16  1  0  0  0  0
 15 35  1  0  0  0  0
 15 36  1  0  0  0  0
 16 20  2  0  0  0  0
 17 21  2  0  0  0  0
 19 22  1  0  0  0  0
 19 37  1  0  0  0  0
 20 24  1  0  0  0  0
 20 38  1  0  0  0  0
 21 23  1  0  0  0  0
 21 39  1  0  0  0  0
 22 23  2  0  0  0  0
 22 40  1  0  0  0  0
 23 41  1  0  0  0  0
 24 42  1  0  0  0  0
 24 43  1  0  0  0  0
 24 44  1  0  0  0  0
 25 45  1  0  0  0  0
 25 46  1  0  0  0  0
 25 47  1  0  0  0  0
M  END
> <PUBCHEM_COMPOUND_CID>
5320580

> <PUBCHEM_COMPOUND_CANONICALIZED>
1

> <PUBCHEM_CACTVS_COMPLEXITY>
678

> <PUBCHEM_CACTVS_HBOND_ACCEPTOR>
5

> <PUBCHEM_CACTVS_HBOND_DONOR>
1

> <PUBCHEM_CACTVS_ROTATABLE_BOND>
2

> <PUBCHEM_CACTVS_SUBSKEYS>
AAADceB7MAAAAAAAAAAAAAAAAAAAAWLEgAA8YIAAAAAWLFgBAAAAHgAQAAAADyzhmAYyyIPABACIAiTSSACCAAAhAgAIiAEIZIkKYDLAkZGfIAhk0AHYyAf+/fufgAAAAAACAABQAAaAADQgQAAAAAAAAA==

> <PUBCHEM_IUPAC_OPENEYE_NAME>
methyl (14E)-14-ethylidene-18-oxa-2,12-diazahexacyclo[9.6.1.19,15.01,9.03,8.012,17]nonadeca-3,5,7-triene-19-carboxylate

> <PUBCHEM_IUPAC_CAS_NAME>
(14E)-14-ethylidene-18-oxa-2,12-diazahexacyclo[9.6.1.19,15.01,9.03,8.012,17]nonadeca-3,5,7-triene-19-carboxylic acid methyl ester

> <PUBCHEM_IUPAC_NAME_MARKUP>
methyl (14<I>E</I>)-14-ethylidene-18-oxa-2,12-diazahexacyclo[9.6.1.1<SUP>9,15</SUP>.0<SUP>1,9</SUP>.0<SUP>3,8</SUP>.0<SUP>12,17</SUP>]nonadeca-3,5,7-triene-19-carboxylate

> <PUBCHEM_IUPAC_NAME>
methyl (14E)-14-ethylidene-18-oxa-2,12-diazahexacyclo[9.6.1.19,15.01,9.03,8.012,17]nonadeca-3,5,7-triene-19-carboxylate

> <PUBCHEM_IUPAC_SYSTEMATIC_NAME>
methyl (14E)-14-ethylidene-18-oxa-2,12-diazahexacyclo[9.6.1.19,15.01,9.03,8.012,17]nonadeca-3,5,7-triene-19-carboxylate

> <PUBCHEM_IUPAC_TRADITIONAL_NAME>
(14E)-14-ethylidene-18-oxa-2,12-diazahexacyclo[9.6.1.19,15.01,9.03,8.012,17]nonadeca-3,5,7-triene-19-carboxylic acid methyl ester

> <PUBCHEM_IUPAC_INCHI>
InChI=1S/C20H22N2O3/c1-3-11-10-22-15-8-12(11)17(18(23)24-2)19-9-16(22)25-20(15,19)21-14-7-5-4-6-13(14)19/h3-7,12,15-17,21H,8-10H2,1-2H3/b11-3-

> <PUBCHEM_IUPAC_INCHIKEY>
BDXYPHKGNUGUFG-JYOAFUTRSA-N

> <PUBCHEM_XLOGP3_AA>
2.1

> <PUBCHEM_EXACT_MASS>
338.163043

> <PUBCHEM_MOLECULAR_FORMULA>
C20H22N2O3

> <PUBCHEM_MOLECULAR_WEIGHT>
338.4

> <PUBCHEM_OPENEYE_CAN_SMILES>
CC=C1CN2C3CC1C(C45C3(NC6=CC=CC=C64)OC2C5)C(=O)OC

> <PUBCHEM_OPENEYE_ISO_SMILES>
C/C=C\1/CN2C3CC1C(C45C3(NC6=CC=CC=C64)OC2C5)C(=O)OC

> <PUBCHEM_CACTVS_TPSA>
50.8

> <PUBCHEM_MONOISOTOPIC_WEIGHT>
338.163043

> <PUBCHEM_TOTAL_CHARGE>
0

> <PUBCHEM_HEAVY_ATOM_COUNT>
25

> <PUBCHEM_ATOM_DEF_STEREO_COUNT>
0

> <PUBCHEM_ATOM_UDEF_STEREO_COUNT>
6

> <PUBCHEM_BOND_DEF_STEREO_COUNT>
1

> <PUBCHEM_BOND_UDEF_STEREO_COUNT>
0

> <PUBCHEM_ISOTOPIC_ATOM_COUNT>
0

> <PUBCHEM_COMPONENT_COUNT>
1

> <PUBCHEM_CACTVS_TAUTO_COUNT>
-1

> <PUBCHEM_COORDINATE_TYPE>
1
5
255

> <PUBCHEM_BONDANNOTATIONS>
10  11  3
12  13  3
14  17  8
14  19  8
17  21  8
19  22  8
21  23  8
22  23  8
6  11  3
7  8  3
8  13  3
9  18  3

$$$$
