44258794
  -OEChem-09062004062D

127133  0     1  0  0  0  0  0999 V2000
    6.8671   -4.7873    0.0000 O   0  0  0  0  0  0  0  0  0  0  0  0
    7.7744    4.7786    0.0000 O   0  0  0  0  0  0  0  0  0  0  0  0
    5.1350   -2.7873    0.0000 O   0  0  0  0  0  0  0  0  0  0  0  0
    6.0010   -6.2873    0.0000 O   0  0  0  0  0  0  0  0  0  0  0  0
    6.9141    6.2819    0.0000 O   0  0  0  0  0  0  0  0  0  0  0  0
    6.0346    2.7852    0.0000 O   0  0  0  0  0  0  0  0  0  0  0  0
    6.8671   -2.7873    0.0000 O   0  0  0  0  0  0  0  0  0  0  0  0
    5.1350   -5.7873    0.0000 O   0  0  0  0  0  0  0  0  0  0  0  0
    7.7666    2.7786    0.0000 O   0  0  0  0  0  0  0  0  0  0  0  0
    3.4030   -4.7873    0.0000 O   0  0  0  0  0  0  0  0  0  0  0  0
    6.0462    5.7852    0.0000 O   0  0  0  0  0  0  0  0  0  0  0  0
    8.5991   -5.7873    0.0000 O   0  0  0  0  0  0  0  0  0  0  0  0
    4.3103    4.7919    0.0000 O   0  0  0  0  0  0  0  0  0  0  0  0
    8.5991   -7.7873    0.0000 O   0  0  0  0  0  0  0  0  0  0  0  0
    9.5102    5.7719    0.0000 O   0  0  0  0  0  0  0  0  0  0  0  0
    6.8671   -8.7873    0.0000 O   0  0  0  0  0  0  0  0  0  0  0  0
    9.5180    7.7718    0.0000 O   0  0  0  0  0  0  0  0  0  0  0  0
    7.7898    8.7785    0.0000 O   0  0  0  0  0  0  0  0  0  0  0  0
    2.5369   -3.2873    0.0000 O   0  0  0  0  0  0  0  0  0  0  0  0
    5.1350   -8.7873    0.0000 O   0  0  0  0  0  0  0  0  0  0  0  0
    6.0577    8.7852    0.0000 O   0  0  0  0  0  0  0  0  0  0  0  0
    8.6230    0.2752    0.0000 O   0  0  0  0  0  0  0  0  0  0  0  0
    6.0308    1.7852    0.0000 O   0  0  0  0  0  0  0  0  0  0  0  0
    5.1208    0.2919    0.0000 O   0  0  0  0  0  0  0  0  0  0  0  0
   12.0987    3.2619    0.0000 O   0  0  0  0  0  0  0  0  0  0  0  0
    6.0010   -4.2873    0.0000 C   0  0  3  0  0  0  0  0  0  0  0  0
    6.9064    4.2819    0.0000 C   0  0  3  0  0  0  0  0  0  0  0  0
    5.1350   -4.7873    0.0000 C   0  0  2  0  0  0  0  0  0  0  0  0
    4.2690   -4.2873    0.0000 C   0  0  1  0  0  0  0  0  0  0  0  0
    6.0423    4.7852    0.0000 C   0  0  2  0  0  0  0  0  0  0  0  0
    6.8671   -5.7873    0.0000 C   0  0  2  0  0  0  0  0  0  0  0  0
    6.0010   -3.2873    0.0000 C   0  0  1  0  0  0  0  0  0  0  0  0
    7.7331   -6.2873    0.0000 C   0  0  3  0  0  0  0  0  0  0  0  0
    7.7782    5.7785    0.0000 C   0  0  2  0  0  0  0  0  0  0  0  0
    4.2690   -3.2873    0.0000 C   0  0  3  0  0  0  0  0  0  0  0  0
    5.1744    4.2886    0.0000 C   0  0  2  0  0  0  0  0  0  0  0  0
    7.7331   -7.2873    0.0000 C   0  0  3  0  0  0  0  0  0  0  0  0
    8.6462    6.2752    0.0000 C   0  0  3  0  0  0  0  0  0  0  0  0
    6.9026    3.2819    0.0000 C   0  0  1  0  0  0  0  0  0  0  0  0
    6.8671   -7.7873    0.0000 C   0  0  1  0  0  0  0  0  0  0  0  0
    8.6500    7.2752    0.0000 C   0  0  3  0  0  0  0  0  0  0  0  0
    5.1705    3.2886    0.0000 C   0  0  3  0  0  0  0  0  0  0  0  0
    6.0010   -7.2873    0.0000 C   0  0  3  0  0  0  0  0  0  0  0  0
    7.7859    7.7785    0.0000 C   0  0  1  0  0  0  0  0  0  0  0  0
    6.9180    7.2819    0.0000 C   0  0  3  0  0  0  0  0  0  0  0  0
    3.4030   -2.7873    0.0000 C   0  0  0  0  0  0  0  0  0  0  0  0
    5.1350   -7.7873    0.0000 C   0  0  0  0  0  0  0  0  0  0  0  0
    4.3026    2.7919    0.0000 C   0  0  0  0  0  0  0  0  0  0  0  0
    6.0539    7.7852    0.0000 C   0  0  0  0  0  0  0  0  0  0  0  0
    6.8671   -1.7873    0.0000 C   0  0  0  0  0  0  0  0  0  0  0  0
    7.7628    1.7786    0.0000 C   0  0  0  0  0  0  0  0  0  0  0  0
    7.7671   -1.2630    0.0000 C   0  0  0  0  0  0  0  0  0  0  0  0
    7.7551   -0.2214    0.0000 C   0  0  0  0  0  0  0  0  0  0  0  0
    6.8910    0.2819    0.0000 C   0  0  0  0  0  0  0  0  0  0  0  0
    6.8948    1.2819    0.0000 C   0  0  0  0  0  0  0  0  0  0  0  0
    5.9670   -1.2630    0.0000 C   0  0  0  0  0  0  0  0  0  0  0  0
    8.6269    1.2752    0.0000 C   0  0  0  0  0  0  0  0  0  0  0  0
    5.9790   -0.2214    0.0000 C   0  0  0  0  0  0  0  0  0  0  0  0
    8.6370   -1.7563    0.0000 C   0  0  0  0  0  0  0  0  0  0  0  0
    9.4948    1.7719    0.0000 C   0  0  0  0  0  0  0  0  0  0  0  0
    9.4991   -1.2496    0.0000 C   0  0  0  0  0  0  0  0  0  0  0  0
    9.4987    2.7719    0.0000 C   0  0  0  0  0  0  0  0  0  0  0  0
   10.3589    1.2686    0.0000 C   0  0  0  0  0  0  0  0  0  0  0  0
   10.3690   -1.7429    0.0000 C   0  0  0  0  0  0  0  0  0  0  0  0
   10.3666    3.2686    0.0000 C   0  0  0  0  0  0  0  0  0  0  0  0
   11.2269    1.7652    0.0000 C   0  0  0  0  0  0  0  0  0  0  0  0
   11.2307    2.7652    0.0000 C   0  0  0  0  0  0  0  0  0  0  0  0
   11.2311   -1.2363    0.0000 C   0  0  0  0  0  0  0  0  0  0  0  0
   10.3767   -2.7429    0.0000 C   0  0  0  0  0  0  0  0  0  0  0  0
    6.0010   -4.9073    0.0000 H   0  0  0  0  0  0  0  0  0  0  0  0
    6.9088    4.9019    0.0000 H   0  0  0  0  0  0  0  0  0  0  0  0
    4.5981   -5.0973    0.0000 H   0  0  0  0  0  0  0  0  0  0  0  0
    4.2690   -4.9073    0.0000 H   0  0  0  0  0  0  0  0  0  0  0  0
    5.5066    5.0973    0.0000 H   0  0  0  0  0  0  0  0  0  0  0  0
    7.4040   -5.4773    0.0000 H   0  0  0  0  0  0  0  0  0  0  0  0
    6.0010   -2.6673    0.0000 H   0  0  0  0  0  0  0  0  0  0  0  0
    8.2700   -6.5973    0.0000 H   0  0  0  0  0  0  0  0  0  0  0  0
    7.2401    5.4706    0.0000 H   0  0  0  0  0  0  0  0  0  0  0  0
    4.2690   -2.6673    0.0000 H   0  0  0  0  0  0  0  0  0  0  0  0
    5.1768    4.9086    0.0000 H   0  0  0  0  0  0  0  0  0  0  0  0
    7.7331   -7.9073    0.0000 H   0  0  0  0  0  0  0  0  0  0  0  0
    9.1843    6.5831    0.0000 H   0  0  0  0  0  0  0  0  0  0  0  0
    7.4407    3.5898    0.0000 H   0  0  0  0  0  0  0  0  0  0  0  0
    7.4040   -8.0973    0.0000 H   0  0  0  0  0  0  0  0  0  0  0  0
    9.1858    6.9631    0.0000 H   0  0  0  0  0  0  0  0  0  0  0  0
    5.1681    2.6686    0.0000 H   0  0  0  0  0  0  0  0  0  0  0  0
    5.4641   -6.9773    0.0000 H   0  0  0  0  0  0  0  0  0  0  0  0
    8.3240    8.0865    0.0000 H   0  0  0  0  0  0  0  0  0  0  0  0
    6.3798    6.9739    0.0000 H   0  0  0  0  0  0  0  0  0  0  0  0
    3.8015   -2.3123    0.0000 H   0  0  0  0  0  0  0  0  0  0  0  0
    3.0044   -2.3123    0.0000 H   0  0  0  0  0  0  0  0  0  0  0  0
    4.9230   -7.2046    0.0000 H   0  0  0  0  0  0  0  0  0  0  0  0
    4.5244   -7.8949    0.0000 H   0  0  0  0  0  0  0  0  0  0  0  0
    3.9946    3.3300    0.0000 H   0  0  0  0  0  0  0  0  0  0  0  0
    3.7644    2.4840    0.0000 H   0  0  0  0  0  0  0  0  0  0  0  0
    4.6105    2.2538    0.0000 H   0  0  0  0  0  0  0  0  0  0  0  0
    5.4437    7.8952    0.0000 H   0  0  0  0  0  0  0  0  0  0  0  0
    5.8396    7.2034    0.0000 H   0  0  0  0  0  0  0  0  0  0  0  0
    4.5981   -6.0973    0.0000 H   0  0  0  0  0  0  0  0  0  0  0  0
    3.4030   -5.4073    0.0000 H   0  0  0  0  0  0  0  0  0  0  0  0
    5.5104    6.0973    0.0000 H   0  0  0  0  0  0  0  0  0  0  0  0
    8.5991   -5.1673    0.0000 H   0  0  0  0  0  0  0  0  0  0  0  0
    3.7722    4.4840    0.0000 H   0  0  0  0  0  0  0  0  0  0  0  0
    9.1360   -7.4773    0.0000 H   0  0  0  0  0  0  0  0  0  0  0  0
   10.0484    6.0798    0.0000 H   0  0  0  0  0  0  0  0  0  0  0  0
    7.4040   -9.0973    0.0000 H   0  0  0  0  0  0  0  0  0  0  0  0
    9.5204    8.3918    0.0000 H   0  0  0  0  0  0  0  0  0  0  0  0
    7.2540    9.0906    0.0000 H   0  0  0  0  0  0  0  0  0  0  0  0
    5.4277   -1.5688    0.0000 H   0  0  0  0  0  0  0  0  0  0  0  0
    2.0000   -2.9773    0.0000 H   0  0  0  0  0  0  0  0  0  0  0  0
    4.5981   -9.0973    0.0000 H   0  0  0  0  0  0  0  0  0  0  0  0
    5.5220    9.0973    0.0000 H   0  0  0  0  0  0  0  0  0  0  0  0
    8.2421   -2.2343    0.0000 H   0  0  0  0  0  0  0  0  0  0  0  0
    9.0392   -2.2281    0.0000 H   0  0  0  0  0  0  0  0  0  0  0  0
    9.4944   -0.6296    0.0000 H   0  0  0  0  0  0  0  0  0  0  0  0
    4.5792   -0.0098    0.0000 H   0  0  0  0  0  0  0  0  0  0  0  0
    8.9630    3.0840    0.0000 H   0  0  0  0  0  0  0  0  0  0  0  0
   10.3565    0.6486    0.0000 H   0  0  0  0  0  0  0  0  0  0  0  0
   10.3690    3.8885    0.0000 H   0  0  0  0  0  0  0  0  0  0  0  0
   11.7626    1.4532    0.0000 H   0  0  0  0  0  0  0  0  0  0  0  0
   11.5453   -1.7708    0.0000 H   0  0  0  0  0  0  0  0  0  0  0  0
   11.7657   -0.9221    0.0000 H   0  0  0  0  0  0  0  0  0  0  0  0
   10.9170   -0.7017    0.0000 H   0  0  0  0  0  0  0  0  0  0  0  0
    9.7567   -2.7477    0.0000 H   0  0  0  0  0  0  0  0  0  0  0  0
   10.3815   -3.3629    0.0000 H   0  0  0  0  0  0  0  0  0  0  0  0
   10.9967   -2.7381    0.0000 H   0  0  0  0  0  0  0  0  0  0  0  0
   12.1011    3.8819    0.0000 H   0  0  0  0  0  0  0  0  0  0  0  0
  1 26  1  0  0  0  0
 31  1  1  1  0  0  0
  2 27  1  0  0  0  0
 34  2  1  6  0  0  0
  3 32  1  0  0  0  0
  3 35  1  0  0  0  0
  4 31  1  0  0  0  0
  4 43  1  0  0  0  0
  5 34  1  0  0  0  0
  5 45  1  0  0  0  0
  6 39  1  0  0  0  0
  6 42  1  0  0  0  0
 32  7  1  1  0  0  0
  7 50  1  0  0  0  0
 28  8  1  1  0  0  0
  8 99  1  0  0  0  0
 39  9  1  6  0  0  0
  9 51  1  0  0  0  0
 29 10  1  6  0  0  0
 10100  1  0  0  0  0
 30 11  1  6  0  0  0
 11101  1  0  0  0  0
 12 33  1  0  0  0  0
 12102  1  0  0  0  0
 36 13  1  6  0  0  0
 13103  1  0  0  0  0
 14 37  1  0  0  0  0
 14104  1  0  0  0  0
 15 38  1  0  0  0  0
 15105  1  0  0  0  0
 40 16  1  6  0  0  0
 16106  1  0  0  0  0
 17 41  1  0  0  0  0
 17107  1  0  0  0  0
 44 18  1  1  0  0  0
 18108  1  0  0  0  0
 19 46  1  0  0  0  0
 19110  1  0  0  0  0
 20 47  1  0  0  0  0
 20111  1  0  0  0  0
 21 49  1  0  0  0  0
 21112  1  0  0  0  0
 22 53  1  0  0  0  0
 22 57  1  0  0  0  0
 23 55  2  0  0  0  0
 24 58  1  0  0  0  0
 24116  1  0  0  0  0
 25 67  1  0  0  0  0
 25127  1  0  0  0  0
 26 28  1  0  0  0  0
 26 32  1  0  0  0  0
 26 70  1  0  0  0  0
 27 30  1  0  0  0  0
 27 39  1  0  0  0  0
 27 71  1  0  0  0  0
 28 29  1  0  0  0  0
 28 72  1  0  0  0  0
 29 35  1  0  0  0  0
 29 73  1  0  0  0  0
 30 36  1  0  0  0  0
 30 74  1  0  0  0  0
 31 33  1  0  0  0  0
 31 75  1  0  0  0  0
 32 76  1  0  0  0  0
 33 37  1  0  0  0  0
 33 77  1  0  0  0  0
 34 38  1  0  0  0  0
 34 78  1  0  0  0  0
 35 46  1  0  0  0  0
 35 79  1  0  0  0  0
 36 42  1  0  0  0  0
 36 80  1  0  0  0  0
 37 40  1  0  0  0  0
 37 81  1  0  0  0  0
 38 41  1  0  0  0  0
 38 82  1  0  0  0  0
 39 83  1  0  0  0  0
 40 43  1  0  0  0  0
 40 84  1  0  0  0  0
 41 44  1  0  0  0  0
 41 85  1  0  0  0  0
 42 48  1  0  0  0  0
 42 86  1  0  0  0  0
 43 47  1  0  0  0  0
 43 87  1  0  0  0  0
 44 45  1  0  0  0  0
 44 88  1  0  0  0  0
 45 49  1  0  0  0  0
 45 89  1  0  0  0  0
 46 90  1  0  0  0  0
 46 91  1  0  0  0  0
 47 92  1  0  0  0  0
 47 93  1  0  0  0  0
 48 94  1  0  0  0  0
 48 95  1  0  0  0  0
 48 96  1  0  0  0  0
 49 97  1  0  0  0  0
 49 98  1  0  0  0  0
 50 52  2  0  0  0  0
 50 56  1  0  0  0  0
 51 55  1  0  0  0  0
 51 57  2  0  0  0  0
 52 53  1  0  0  0  0
 52 59  1  0  0  0  0
 53 54  2  0  0  0  0
 54 55  1  0  0  0  0
 54 58  1  0  0  0  0
 56 58  2  0  0  0  0
 56109  1  0  0  0  0
 57 60  1  0  0  0  0
 59 61  1  0  0  0  0
 59113  1  0  0  0  0
 59114  1  0  0  0  0
 60 62  2  0  0  0  0
 60 63  1  0  0  0  0
 61 64  2  0  0  0  0
 61115  1  0  0  0  0
 62 65  1  0  0  0  0
 62117  1  0  0  0  0
 63 66  2  0  0  0  0
 63118  1  0  0  0  0
 64 68  1  0  0  0  0
 64 69  1  0  0  0  0
 65 67  2  0  0  0  0
 65119  1  0  0  0  0
 66 67  1  0  0  0  0
 66120  1  0  0  0  0
 68121  1  0  0  0  0
 68122  1  0  0  0  0
 68123  1  0  0  0  0
 69124  1  0  0  0  0
 69125  1  0  0  0  0
 69126  1  0  0  0  0
M  END
> <PUBCHEM_COMPOUND_CID>
44258794

> <PUBCHEM_COMPOUND_CANONICALIZED>
1

> <PUBCHEM_CACTVS_COMPLEXITY>
1760

> <PUBCHEM_CACTVS_HBOND_ACCEPTOR>
25

> <PUBCHEM_CACTVS_HBOND_DONOR>
15

> <PUBCHEM_CACTVS_ROTATABLE_BOND>
14

> <PUBCHEM_CACTVS_SUBSKEYS>
AAADcfB8PgAAAAAAAAAAAAAAAAAAAAAAAAA0aJEiAAAAAACBQAAAGgAACAAADBSwmAMyDoAABgCIAqBSAAICCAAkIAAIiAFGCMgdNzaGNR6ieWCl4BUPuQfI7PzOIAACCAAIAABAAAQQABAAAAAAAAAAAA==

> <PUBCHEM_IUPAC_OPENEYE_NAME>
7-[(2S,4S,5S)-4,5-dihydroxy-6-(hydroxymethyl)-3-[(2S,5S)-3,4,5-trihydroxy-6-(hydroxymethyl)tetrahydropyran-2-yl]oxy-tetrahydropyran-2-yl]oxy-3-[(2S,4S,5R)-4,5-dihydroxy-6-methyl-3-[(2S,5S)-3,4,5-trihydroxy-6-(hydroxymethyl)tetrahydropyran-2-yl]oxy-tetrahydropyran-2-yl]oxy-5-hydroxy-2-(4-hydroxyphenyl)-8-(3-methylbut-2-enyl)chromen-4-one

> <PUBCHEM_IUPAC_CAS_NAME>
7-[[(2S,4S,5S)-4,5-dihydroxy-6-(hydroxymethyl)-3-[[(2S,5S)-3,4,5-trihydroxy-6-(hydroxymethyl)-2-oxanyl]oxy]-2-oxanyl]oxy]-3-[[(2S,4S,5R)-4,5-dihydroxy-6-methyl-3-[[(2S,5S)-3,4,5-trihydroxy-6-(hydroxymethyl)-2-oxanyl]oxy]-2-oxanyl]oxy]-5-hydroxy-2-(4-hydroxyphenyl)-8-(3-methylbut-2-enyl)-1-benzopyran-4-one

> <PUBCHEM_IUPAC_NAME_MARKUP>
7-[(2<I>S</I>,4<I>S</I>,5<I>S</I>)-4,5-dihydroxy-6-(hydroxymethyl)-3-[(2<I>S</I>,5<I>S</I>)-3,4,5-trihydroxy-6-(hydroxymethyl)oxan-2-yl]oxyoxan-2-yl]oxy-3-[(2<I>S</I>,4<I>S</I>,5<I>R</I>)-4,5-dihydroxy-6-methyl-3-[(2<I>S</I>,5<I>S</I>)-3,4,5-trihydroxy-6-(hydroxymethyl)oxan-2-yl]oxyoxan-2-yl]oxy-5-hydroxy-2-(4-hydroxyphenyl)-8-(3-methylbut-2-enyl)chromen-4-one

> <PUBCHEM_IUPAC_NAME>
7-[(2S,4S,5S)-4,5-dihydroxy-6-(hydroxymethyl)-3-[(2S,5S)-3,4,5-trihydroxy-6-(hydroxymethyl)oxan-2-yl]oxyoxan-2-yl]oxy-3-[(2S,4S,5R)-4,5-dihydroxy-6-methyl-3-[(2S,5S)-3,4,5-trihydroxy-6-(hydroxymethyl)oxan-2-yl]oxyoxan-2-yl]oxy-5-hydroxy-2-(4-hydroxyphenyl)-8-(3-methylbut-2-enyl)chromen-4-one

> <PUBCHEM_IUPAC_SYSTEMATIC_NAME>
7-[(2S,4S,5S)-6-(hydroxymethyl)-3-[(2S,5S)-6-(hydroxymethyl)-3,4,5-tris(oxidanyl)oxan-2-yl]oxy-4,5-bis(oxidanyl)oxan-2-yl]oxy-3-[(2S,4S,5R)-3-[(2S,5S)-6-(hydroxymethyl)-3,4,5-tris(oxidanyl)oxan-2-yl]oxy-6-methyl-4,5-bis(oxidanyl)oxan-2-yl]oxy-2-(4-hydroxyphenyl)-8-(3-methylbut-2-enyl)-5-oxidanyl-chromen-4-one

> <PUBCHEM_IUPAC_TRADITIONAL_NAME>
7-[(2S,4S,5S)-4,5-dihydroxy-6-methylol-3-[(2S,5S)-3,4,5-trihydroxy-6-methylol-tetrahydropyran-2-yl]oxy-tetrahydropyran-2-yl]oxy-3-[(2S,4S,5R)-4,5-dihydroxy-6-methyl-3-[(2S,5S)-3,4,5-trihydroxy-6-methylol-tetrahydropyran-2-yl]oxy-tetrahydropyran-2-yl]oxy-5-hydroxy-2-(4-hydroxyphenyl)-8-(3-methylbut-2-enyl)chromone

> <PUBCHEM_IUPAC_INCHI>
InChI=1S/C44H58O25/c1-14(2)4-9-18-20(62-44-40(33(58)28(53)23(13-47)65-44)69-42-35(60)31(56)27(52)22(12-46)64-42)10-19(49)24-29(54)38(36(66-37(18)24)16-5-7-17(48)8-6-16)67-43-39(32(57)25(50)15(3)61-43)68-41-34(59)30(55)26(51)21(11-45)63-41/h4-8,10,15,21-23,25-28,30-35,39-53,55-60H,9,11-13H2,1-3H3/t15?,21?,22?,23?,25-,26+,27+,28+,30?,31?,32-,33-,34?,35?,39?,40?,41-,42-,43-,44+/m0/s1

> <PUBCHEM_IUPAC_INCHIKEY>
AASIAAVALAOIOH-UCXLLNHOSA-N

> <PUBCHEM_XLOGP3_AA>
-1.9

> <PUBCHEM_EXACT_MASS>
986.326717

> <PUBCHEM_MOLECULAR_FORMULA>
C44H58O25

> <PUBCHEM_MOLECULAR_WEIGHT>
986.9

> <PUBCHEM_OPENEYE_CAN_SMILES>
CC1C(C(C(C(O1)OC2=C(OC3=C(C2=O)C(=CC(=C3CC=C(C)C)OC4C(C(C(C(O4)CO)O)O)OC5C(C(C(C(O5)CO)O)O)O)O)C6=CC=C(C=C6)O)OC7C(C(C(C(O7)CO)O)O)O)O)O

> <PUBCHEM_OPENEYE_ISO_SMILES>
CC1[C@@H]([C@@H](C([C@@H](O1)OC2=C(OC3=C(C2=O)C(=CC(=C3CC=C(C)C)O[C@H]4C([C@H]([C@@H](C(O4)CO)O)O)O[C@H]5C(C([C@@H](C(O5)CO)O)O)O)O)C6=CC=C(C=C6)O)O[C@H]7C(C([C@@H](C(O7)CO)O)O)O)O)O

> <PUBCHEM_CACTVS_TPSA>
404

> <PUBCHEM_MONOISOTOPIC_WEIGHT>
986.326717

> <PUBCHEM_TOTAL_CHARGE>
0

> <PUBCHEM_HEAVY_ATOM_COUNT>
69

> <PUBCHEM_ATOM_DEF_STEREO_COUNT>
10

> <PUBCHEM_ATOM_UDEF_STEREO_COUNT>
10

> <PUBCHEM_BOND_DEF_STEREO_COUNT>
0

> <PUBCHEM_BOND_UDEF_STEREO_COUNT>
0

> <PUBCHEM_ISOTOPIC_ATOM_COUNT>
0

> <PUBCHEM_COMPONENT_COUNT>
1

> <PUBCHEM_CACTVS_TAUTO_COUNT>
-1

> <PUBCHEM_COORDINATE_TYPE>
1
5
255

> <PUBCHEM_BONDANNOTATIONS>
26  1  3
31  1  5
29  10  6
30  11  6
33  12  3
36  13  6
37  14  3
38  15  3
40  16  6
41  17  3
44  18  5
27  2  3
34  2  6
22  53  8
22  57  8
35  46  3
42  48  3
43  47  3
45  49  3
50  52  8
50  56  8
51  55  8
51  57  8
52  53  8
53  54  8
54  55  8
54  58  8
56  58  8
60  62  8
60  63  8
62  65  8
63  66  8
65  67  8
66  67  8
32  7  5
28  8  5
39  9  6

$$$$
