53486399
  -OEChem-09062004032D

111116  0     1  0  0  0  0  0999 V2000
    5.9998    3.8780    0.0000 O   0  0  0  0  0  0  0  0  0  0  0  0
    2.5434    5.8913    0.0000 O   0  0  0  0  0  0  0  0  0  0  0  0
    2.5357    3.8913    0.0000 O   0  0  0  0  0  0  0  0  0  0  0  0
    4.2639    2.8847    0.0000 O   0  0  0  0  0  0  0  0  0  0  0  0
    6.8779   -3.6913    0.0000 O   0  0  0  0  0  0  0  0  0  0  0  0
    5.1459   -1.6913    0.0000 O   0  0  0  0  0  0  0  0  0  0  0  0
    6.0119   -5.1913    0.0000 O   0  0  0  0  0  0  0  0  0  0  0  0
    5.1473    7.3813    0.0000 O   0  0  0  0  0  0  0  0  0  0  0  0
    6.8779   -1.6913    0.0000 O   0  0  0  0  0  0  0  0  0  0  0  0
    5.1459   -4.6913    0.0000 O   0  0  0  0  0  0  0  0  0  0  0  0
    3.4138   -3.6913    0.0000 O   0  0  0  0  0  0  0  0  0  0  0  0
    8.6100   -4.6913    0.0000 O   0  0  0  0  0  0  0  0  0  0  0  0
    8.6100   -6.6913    0.0000 O   0  0  0  0  0  0  0  0  0  0  0  0
    6.8779   -7.6913    0.0000 O   0  0  0  0  0  0  0  0  0  0  0  0
    7.7440    0.8087    0.0000 O   0  0  0  0  0  0  0  0  0  0  0  0
    4.2799   -6.1913    0.0000 O   0  0  0  0  0  0  0  0  0  0  0  0
    4.2417    0.8056    0.0000 O   0  0  0  0  0  0  0  0  0  0  0  0
    5.1459   -0.6913    0.0000 O   0  0  0  0  0  0  0  0  0  0  0  0
   11.2081   -2.1913    0.0000 O   0  0  0  0  0  0  0  0  0  0  0  0
    4.2755    5.8846    0.0000 C   0  0  2  0  0  0  0  0  0  0  0  0
    3.4075    5.3880    0.0000 C   0  0  2  0  0  0  0  0  0  0  0  0
    5.1396    5.3813    0.0000 C   0  0  0  0  0  0  0  0  0  0  0  0
    5.1357    4.3813    0.0000 C   0  0  2  0  0  0  0  0  0  0  0  0
    3.4037    4.3880    0.0000 C   0  0  1  0  0  0  0  0  0  0  0  0
    4.2678    3.8846    0.0000 C   0  0  1  0  0  0  0  0  0  0  0  0
    4.2793    6.8846    0.0000 C   0  0  0  0  0  0  0  0  0  0  0  0
    6.0119   -3.1913    0.0000 C   0  0  2  0  0  0  0  0  0  0  0  0
    5.1459   -3.6913    0.0000 C   0  0  1  0  0  0  0  0  0  0  0  0
    6.8779   -4.6913    0.0000 C   0  0  2  0  0  0  0  0  0  0  0  0
    4.2799   -3.1913    0.0000 C   0  0  2  0  0  0  0  0  0  0  0  0
    6.0119   -2.1913    0.0000 C   0  0  1  0  0  0  0  0  0  0  0  0
    7.7440   -5.1913    0.0000 C   0  0  1  0  0  0  0  0  0  0  0  0
    7.7440   -6.1913    0.0000 C   0  0  2  0  0  0  0  0  0  0  0  0
    4.2799   -2.1913    0.0000 C   0  0  2  0  0  0  0  0  0  0  0  0
    6.8779   -6.6913    0.0000 C   0  0  1  0  0  0  0  0  0  0  0  0
    6.0119   -6.1913    0.0000 C   0  0  1  0  0  0  0  0  0  0  0  0
    5.9960    2.8780    0.0000 C   0  0  0  0  0  0  0  0  0  0  0  0
    3.4138   -1.6913    0.0000 C   0  0  0  0  0  0  0  0  0  0  0  0
    5.1459   -6.6913    0.0000 C   0  0  0  0  0  0  0  0  0  0  0  0
    6.8940    2.3502    0.0000 C   0  0  0  0  0  0  0  0  0  0  0  0
    5.0939    2.3572    0.0000 C   0  0  0  0  0  0  0  0  0  0  0  0
    6.8779    1.3087    0.0000 C   0  0  0  0  0  0  0  0  0  0  0  0
    6.8779   -0.6913    0.0000 C   0  0  0  0  0  0  0  0  0  0  0  0
    6.0119    0.8087    0.0000 C   0  0  0  0  0  0  0  0  0  0  0  0
    5.1019    1.3156    0.0000 C   0  0  0  0  0  0  0  0  0  0  0  0
    7.7657    2.8402    0.0000 C   0  0  0  0  0  0  0  0  0  0  0  0
    6.0119   -0.1913    0.0000 C   0  0  0  0  0  0  0  0  0  0  0  0
    7.7440   -0.1913    0.0000 C   0  0  0  0  0  0  0  0  0  0  0  0
    8.6100   -0.6913    0.0000 C   0  0  0  0  0  0  0  0  0  0  0  0
    7.7773    3.8401    0.0000 C   0  0  0  0  0  0  0  0  0  0  0  0
    8.6491    4.3301    0.0000 C   0  0  0  0  0  0  0  0  0  0  0  0
    8.6100   -1.6913    0.0000 C   0  0  0  0  0  0  0  0  0  0  0  0
    9.4760   -0.1913    0.0000 C   0  0  0  0  0  0  0  0  0  0  0  0
    9.4760   -2.1913    0.0000 C   0  0  0  0  0  0  0  0  0  0  0  0
   10.3420   -0.6913    0.0000 C   0  0  0  0  0  0  0  0  0  0  0  0
    8.6606    5.3300    0.0000 C   0  0  0  0  0  0  0  0  0  0  0  0
    9.5092    3.8201    0.0000 C   0  0  0  0  0  0  0  0  0  0  0  0
   10.3420   -1.6913    0.0000 C   0  0  0  0  0  0  0  0  0  0  0  0
   12.0741   -1.6913    0.0000 C   0  0  0  0  0  0  0  0  0  0  0  0
    4.8136    6.1926    0.0000 H   0  0  0  0  0  0  0  0  0  0  0  0
    3.4099    6.0080    0.0000 H   0  0  0  0  0  0  0  0  0  0  0  0
    5.7497    5.2713    0.0000 H   0  0  0  0  0  0  0  0  0  0  0  0
    5.3539    5.9631    0.0000 H   0  0  0  0  0  0  0  0  0  0  0  0
    5.6738    4.6892    0.0000 H   0  0  0  0  0  0  0  0  0  0  0  0
    2.8680    4.7000    0.0000 H   0  0  0  0  0  0  0  0  0  0  0  0
    3.7296    3.5767    0.0000 H   0  0  0  0  0  0  0  0  0  0  0  0
    4.0695    7.4680    0.0000 H   0  0  0  0  0  0  0  0  0  0  0  0
    3.6684    6.7793    0.0000 H   0  0  0  0  0  0  0  0  0  0  0  0
    6.0119   -3.8113    0.0000 H   0  0  0  0  0  0  0  0  0  0  0  0
    4.6090   -4.0013    0.0000 H   0  0  0  0  0  0  0  0  0  0  0  0
    7.4149   -4.3813    0.0000 H   0  0  0  0  0  0  0  0  0  0  0  0
    3.7429   -2.8813    0.0000 H   0  0  0  0  0  0  0  0  0  0  0  0
    6.0119   -1.5713    0.0000 H   0  0  0  0  0  0  0  0  0  0  0  0
    8.2809   -5.5013    0.0000 H   0  0  0  0  0  0  0  0  0  0  0  0
    8.2809   -5.8813    0.0000 H   0  0  0  0  0  0  0  0  0  0  0  0
    4.2799   -1.5713    0.0000 H   0  0  0  0  0  0  0  0  0  0  0  0
    7.4149   -7.0013    0.0000 H   0  0  0  0  0  0  0  0  0  0  0  0
    5.4750   -5.8813    0.0000 H   0  0  0  0  0  0  0  0  0  0  0  0
    2.5458    6.5113    0.0000 H   0  0  0  0  0  0  0  0  0  0  0  0
    2.0000    4.2034    0.0000 H   0  0  0  0  0  0  0  0  0  0  0  0
    3.7258    2.5767    0.0000 H   0  0  0  0  0  0  0  0  0  0  0  0
    3.7238   -1.1543    0.0000 H   0  0  0  0  0  0  0  0  0  0  0  0
    2.8769   -1.3813    0.0000 H   0  0  0  0  0  0  0  0  0  0  0  0
    3.1038   -2.2282    0.0000 H   0  0  0  0  0  0  0  0  0  0  0  0
    5.1497    8.0013    0.0000 H   0  0  0  0  0  0  0  0  0  0  0  0
    4.7474   -7.1662    0.0000 H   0  0  0  0  0  0  0  0  0  0  0  0
    5.5444   -7.1662    0.0000 H   0  0  0  0  0  0  0  0  0  0  0  0
    4.6090   -5.0013    0.0000 H   0  0  0  0  0  0  0  0  0  0  0  0
    2.8769   -3.3813    0.0000 H   0  0  0  0  0  0  0  0  0  0  0  0
    4.5558    2.6651    0.0000 H   0  0  0  0  0  0  0  0  0  0  0  0
    9.1469   -5.0013    0.0000 H   0  0  0  0  0  0  0  0  0  0  0  0
    8.6100   -7.3113    0.0000 H   0  0  0  0  0  0  0  0  0  0  0  0
    6.3410   -8.0013    0.0000 H   0  0  0  0  0  0  0  0  0  0  0  0
    7.9710    2.2552    0.0000 H   0  0  0  0  0  0  0  0  0  0  0  0
    8.3775    2.9408    0.0000 H   0  0  0  0  0  0  0  0  0  0  0  0
    3.7429   -6.5013    0.0000 H   0  0  0  0  0  0  0  0  0  0  0  0
    7.2440    4.1563    0.0000 H   0  0  0  0  0  0  0  0  0  0  0  0
    3.7012    1.1094    0.0000 H   0  0  0  0  0  0  0  0  0  0  0  0
    8.0730   -2.0013    0.0000 H   0  0  0  0  0  0  0  0  0  0  0  0
    9.4760    0.4287    0.0000 H   0  0  0  0  0  0  0  0  0  0  0  0
    9.4760   -2.8113    0.0000 H   0  0  0  0  0  0  0  0  0  0  0  0
   10.8790   -0.3813    0.0000 H   0  0  0  0  0  0  0  0  0  0  0  0
    9.2806    5.3228    0.0000 H   0  0  0  0  0  0  0  0  0  0  0  0
    8.6678    5.9500    0.0000 H   0  0  0  0  0  0  0  0  0  0  0  0
    8.0407    5.3372    0.0000 H   0  0  0  0  0  0  0  0  0  0  0  0
    9.1931    3.2868    0.0000 H   0  0  0  0  0  0  0  0  0  0  0  0
   10.0426    3.5039    0.0000 H   0  0  0  0  0  0  0  0  0  0  0  0
    9.8254    4.3534    0.0000 H   0  0  0  0  0  0  0  0  0  0  0  0
   12.3841   -2.2282    0.0000 H   0  0  0  0  0  0  0  0  0  0  0  0
   12.6110   -1.3813    0.0000 H   0  0  0  0  0  0  0  0  0  0  0  0
   11.7641   -1.1543    0.0000 H   0  0  0  0  0  0  0  0  0  0  0  0
 23  1  1  1  0  0  0
  1 37  1  0  0  0  0
 21  2  1  6  0  0  0
  2 79  1  0  0  0  0
 24  3  1  1  0  0  0
  3 80  1  0  0  0  0
 25  4  1  6  0  0  0
  4 81  1  0  0  0  0
 27  5  1  6  0  0  0
 29  5  1  1  0  0  0
  6 31  1  0  0  0  0
  6 34  1  0  0  0  0
  7 29  1  0  0  0  0
  7 36  1  0  0  0  0
  8 26  1  0  0  0  0
  8 85  1  0  0  0  0
 31  9  1  1  0  0  0
  9 43  1  0  0  0  0
 28 10  1  6  0  0  0
 10 88  1  0  0  0  0
 30 11  1  1  0  0  0
 11 89  1  0  0  0  0
 32 12  1  6  0  0  0
 12 91  1  0  0  0  0
 33 13  1  1  0  0  0
 13 92  1  0  0  0  0
 35 14  1  6  0  0  0
 14 93  1  0  0  0  0
 15 42  1  0  0  0  0
 15 48  1  0  0  0  0
 16 39  1  0  0  0  0
 16 96  1  0  0  0  0
 17 45  1  0  0  0  0
 17 98  1  0  0  0  0
 18 47  2  0  0  0  0
 19 58  1  0  0  0  0
 19 59  1  0  0  0  0
 20 21  1  0  0  0  0
 20 22  1  0  0  0  0
 20 26  1  1  0  0  0
 20 60  1  0  0  0  0
 21 24  1  0  0  0  0
 21 61  1  0  0  0  0
 22 23  1  0  0  0  0
 22 62  1  0  0  0  0
 22 63  1  0  0  0  0
 23 25  1  0  0  0  0
 23 64  1  0  0  0  0
 24 25  1  0  0  0  0
 24 65  1  0  0  0  0
 25 66  1  0  0  0  0
 26 67  1  0  0  0  0
 26 68  1  0  0  0  0
 27 28  1  0  0  0  0
 27 31  1  0  0  0  0
 27 69  1  0  0  0  0
 28 30  1  0  0  0  0
 28 70  1  0  0  0  0
 29 32  1  0  0  0  0
 29 71  1  0  0  0  0
 30 34  1  0  0  0  0
 30 72  1  0  0  0  0
 31 73  1  0  0  0  0
 32 33  1  0  0  0  0
 32 74  1  0  0  0  0
 33 35  1  0  0  0  0
 33 75  1  0  0  0  0
 34 38  1  6  0  0  0
 34 76  1  0  0  0  0
 35 36  1  0  0  0  0
 35 77  1  0  0  0  0
 36 39  1  1  0  0  0
 36 78  1  0  0  0  0
 37 40  2  0  0  0  0
 37 41  1  0  0  0  0
 38 82  1  0  0  0  0
 38 83  1  0  0  0  0
 38 84  1  0  0  0  0
 39 86  1  0  0  0  0
 39 87  1  0  0  0  0
 40 42  1  0  0  0  0
 40 46  1  0  0  0  0
 41 45  2  0  0  0  0
 41 90  1  0  0  0  0
 42 44  2  0  0  0  0
 43 47  1  0  0  0  0
 43 48  2  0  0  0  0
 44 45  1  0  0  0  0
 44 47  1  0  0  0  0
 46 50  1  0  0  0  0
 46 94  1  0  0  0  0
 46 95  1  0  0  0  0
 48 49  1  0  0  0  0
 49 52  2  0  0  0  0
 49 53  1  0  0  0  0
 50 51  2  0  0  0  0
 50 97  1  0  0  0  0
 51 56  1  0  0  0  0
 51 57  1  0  0  0  0
 52 54  1  0  0  0  0
 52 99  1  0  0  0  0
 53 55  2  0  0  0  0
 53100  1  0  0  0  0
 54 58  2  0  0  0  0
 54101  1  0  0  0  0
 55 58  1  0  0  0  0
 55102  1  0  0  0  0
 56103  1  0  0  0  0
 56104  1  0  0  0  0
 56105  1  0  0  0  0
 57106  1  0  0  0  0
 57107  1  0  0  0  0
 57108  1  0  0  0  0
 59109  1  0  0  0  0
 59110  1  0  0  0  0
 59111  1  0  0  0  0
M  END
> <PUBCHEM_COMPOUND_CID>
53486399

> <PUBCHEM_COMPOUND_CANONICALIZED>
1

> <PUBCHEM_CACTVS_COMPLEXITY>
1470

> <PUBCHEM_CACTVS_HBOND_ACCEPTOR>
19

> <PUBCHEM_CACTVS_HBOND_DONOR>
11

> <PUBCHEM_CACTVS_ROTATABLE_BOND>
12

> <PUBCHEM_CACTVS_SUBSKEYS>
AAADcfB8PgAAAAAAAAAAAAAAAAAAAAAAAAA0aMECAAAAAACBQAAAGgAACAAADRSwmAMyDoAABgCIAqBSAAICCAAkIAAIiAFGCMgdNzaGNR6ieWCl4BUPuQfI7PzOIAACCAAIAABCAAYQABCAAAAAAAAAAA==

> <PUBCHEM_IUPAC_OPENEYE_NAME>
3-[(2S,3R,4R,5R,6S)-4,5-dihydroxy-6-methyl-3-[(2S,3R,4S,5S,6R)-3,4,5-trihydroxy-6-(hydroxymethyl)tetrahydropyran-2-yl]oxy-tetrahydropyran-2-yl]oxy-5-hydroxy-2-(4-methoxyphenyl)-8-(3-methylbut-2-enyl)-7-[(1R,2R,3S,4R,5R)-2,3,4-trihydroxy-5-(hydroxymethyl)cyclohexoxy]chromen-4-one

> <PUBCHEM_IUPAC_CAS_NAME>
3-[[(2S,3R,4R,5R,6S)-4,5-dihydroxy-6-methyl-3-[[(2S,3R,4S,5S,6R)-3,4,5-trihydroxy-6-(hydroxymethyl)-2-oxanyl]oxy]-2-oxanyl]oxy]-5-hydroxy-2-(4-methoxyphenyl)-8-(3-methylbut-2-enyl)-7-[(1R,2R,3S,4R,5R)-2,3,4-trihydroxy-5-(hydroxymethyl)cyclohexyl]oxy-1-benzopyran-4-one

> <PUBCHEM_IUPAC_NAME_MARKUP>
3-[(2<I>S</I>,3<I>R</I>,4<I>R</I>,5<I>R</I>,6<I>S</I>)-4,5-dihydroxy-6-methyl-3-[(2<I>S</I>,3<I>R</I>,4<I>S</I>,5<I>S</I>,6<I>R</I>)-3,4,5-trihydroxy-6-(hydroxymethyl)oxan-2-yl]oxyoxan-2-yl]oxy-5-hydroxy-2-(4-methoxyphenyl)-8-(3-methylbut-2-enyl)-7-[(1<I>R</I>,2<I>R</I>,3<I>S</I>,4<I>R</I>,5<I>R</I>)-2,3,4-trihydroxy-5-(hydroxymethyl)cyclohexyl]oxychromen-4-one

> <PUBCHEM_IUPAC_NAME>
3-[(2S,3R,4R,5R,6S)-4,5-dihydroxy-6-methyl-3-[(2S,3R,4S,5S,6R)-3,4,5-trihydroxy-6-(hydroxymethyl)oxan-2-yl]oxyoxan-2-yl]oxy-5-hydroxy-2-(4-methoxyphenyl)-8-(3-methylbut-2-enyl)-7-[(1R,2R,3S,4R,5R)-2,3,4-trihydroxy-5-(hydroxymethyl)cyclohexyl]oxychromen-4-one

> <PUBCHEM_IUPAC_SYSTEMATIC_NAME>
7-[(1R,2R,3S,4R,5R)-5-(hydroxymethyl)-2,3,4-tris(oxidanyl)cyclohexyl]oxy-3-[(2S,3R,4R,5R,6S)-3-[(2S,3R,4S,5S,6R)-6-(hydroxymethyl)-3,4,5-tris(oxidanyl)oxan-2-yl]oxy-6-methyl-4,5-bis(oxidanyl)oxan-2-yl]oxy-2-(4-methoxyphenyl)-8-(3-methylbut-2-enyl)-5-oxidanyl-chromen-4-one

> <PUBCHEM_IUPAC_TRADITIONAL_NAME>
3-[(2S,3R,4R,5R,6S)-4,5-dihydroxy-6-methyl-3-[(2S,3R,4S,5S,6R)-3,4,5-trihydroxy-6-methylol-tetrahydropyran-2-yl]oxy-tetrahydropyran-2-yl]oxy-5-hydroxy-2-(4-methoxyphenyl)-8-(3-methylbut-2-enyl)-7-[(1R,2R,3S,4R,5R)-2,3,4-trihydroxy-5-methylol-cyclohexoxy]chromone

> <PUBCHEM_IUPAC_INCHI>
InChI=1S/C40H52O19/c1-15(2)5-10-20-22(55-23-11-18(13-41)27(45)31(49)28(23)46)12-21(43)25-30(48)37(35(57-36(20)25)17-6-8-19(53-4)9-7-17)58-40-38(33(51)26(44)16(3)54-40)59-39-34(52)32(50)29(47)24(14-42)56-39/h5-9,12,16,18,23-24,26-29,31-34,38-47,49-52H,10-11,13-14H2,1-4H3/t16-,18+,23+,24+,26-,27+,28-,29+,31-,32-,33+,34+,38+,39-,40-/m0/s1

> <PUBCHEM_IUPAC_INCHIKEY>
OKOVXNDIKBDKAA-OIAFWOJHSA-N

> <PUBCHEM_XLOGP3_AA>
0.7

> <PUBCHEM_EXACT_MASS>
836.310279

> <PUBCHEM_MOLECULAR_FORMULA>
C40H52O19

> <PUBCHEM_MOLECULAR_WEIGHT>
836.8

> <PUBCHEM_OPENEYE_CAN_SMILES>
CC1C(C(C(C(O1)OC2=C(OC3=C(C2=O)C(=CC(=C3CC=C(C)C)OC4CC(C(C(C4O)O)O)CO)O)C5=CC=C(C=C5)OC)OC6C(C(C(C(O6)CO)O)O)O)O)O

> <PUBCHEM_OPENEYE_ISO_SMILES>
C[C@H]1[C@@H]([C@H]([C@H]([C@@H](O1)OC2=C(OC3=C(C2=O)C(=CC(=C3CC=C(C)C)O[C@@H]4C[C@@H]([C@H]([C@@H]([C@H]4O)O)O)CO)O)C5=CC=C(C=C5)OC)O[C@H]6[C@@H]([C@H]([C@@H]([C@H](O6)CO)O)O)O)O)O

> <PUBCHEM_CACTVS_TPSA>
304

> <PUBCHEM_MONOISOTOPIC_WEIGHT>
836.310279

> <PUBCHEM_TOTAL_CHARGE>
0

> <PUBCHEM_HEAVY_ATOM_COUNT>
59

> <PUBCHEM_ATOM_DEF_STEREO_COUNT>
15

> <PUBCHEM_ATOM_UDEF_STEREO_COUNT>
0

> <PUBCHEM_BOND_DEF_STEREO_COUNT>
0

> <PUBCHEM_BOND_UDEF_STEREO_COUNT>
0

> <PUBCHEM_ISOTOPIC_ATOM_COUNT>
0

> <PUBCHEM_COMPONENT_COUNT>
1

> <PUBCHEM_CACTVS_TAUTO_COUNT>
-1

> <PUBCHEM_COORDINATE_TYPE>
1
5
255

> <PUBCHEM_BONDANNOTATIONS>
23  1  5
28  10  6
30  11  5
32  12  6
33  13  5
35  14  6
15  42  8
15  48  8
21  2  6
20  26  5
24  3  5
34  38  6
36  39  5
37  40  8
37  41  8
25  4  6
40  42  8
41  45  8
42  44  8
43  47  8
43  48  8
44  45  8
44  47  8
49  52  8
49  53  8
27  5  6
29  5  5
52  54  8
53  55  8
54  58  8
55  58  8
31  9  5

$$$$
