101838306
  -OEChem-09152017072D

140146  0     1  0  0  0  0  0999 V2000
    5.0604   -5.0694    0.0000 O   0  0  0  0  0  0  0  0  0  0  0  0
    5.1121   -6.0696    0.0000 O   0  0  0  0  0  0  0  0  0  0  0  0
    6.1637   -7.0125    0.0000 O   0  0  0  0  0  0  0  0  0  0  0  0
    4.4246   -5.1029    0.0000 O   0  0  0  0  0  0  0  0  0  0  0  0
    5.4076   -6.6260    0.0000 O   0  0  0  0  0  0  0  0  0  0  0  0
    6.8207   -1.0176    0.0000 O   0  0  0  0  0  0  0  0  0  0  0  0
    5.0913   -1.1137    0.0000 O   0  0  0  0  0  0  0  0  0  0  0  0
    4.7030   -3.8056    0.0000 N   0  0  0  0  0  0  0  0  0  0  0  0
    7.8746   -6.2877    0.0000 N   0  0  0  0  0  0  0  0  0  0  0  0
    2.5896   -7.5154    0.0000 N   0  0  0  0  0  0  0  0  0  0  0  0
    5.8876   -9.0528    0.0000 N   0  0  0  0  0  0  0  0  0  0  0  0
    6.0609   -5.0218    0.0000 C   0  0  1  0  0  0  0  0  0  0  0  0
    6.1122   -6.0139    0.0000 C   0  0  2  0  0  0  0  0  0  0  0  0
    6.9949   -4.6835    0.0000 C   0  0  0  0  0  0  0  0  0  0  0  0
    7.0760   -6.2541    0.0000 C   0  0  0  0  0  0  0  0  0  0  0  0
    5.2578   -4.1091    0.0000 C   0  0  2  0  0  0  0  0  0  0  0  0
    7.5869   -5.4022    0.0000 C   0  0  0  0  0  0  0  0  0  0  0  0
    6.1809   -4.2316    0.0000 C   0  0  0  0  0  0  0  0  0  0  0  0
    4.3541   -4.3331    0.0000 C   0  0  1  0  0  0  0  0  0  0  0  0
    6.8181   -7.2203    0.0000 C   0  0  0  0  0  0  0  0  0  0  0  0
    5.2712   -5.6353    0.0000 C   0  0  0  0  0  0  0  0  0  0  0  0
    5.2023   -3.1106    0.0000 C   0  0  0  0  0  0  0  0  0  0  0  0
    3.5952   -4.8725    0.0000 C   0  0  0  0  0  0  0  0  0  0  0  0
    7.8181   -7.2171    0.0000 C   0  0  0  0  0  0  0  0  0  0  0  0
    3.9368   -3.4243    0.0000 C   0  0  0  0  0  0  0  0  0  0  0  0
    6.0393   -2.5633    0.0000 C   0  0  0  0  0  0  0  0  0  0  0  0
    6.0260   -7.8307    0.0000 C   0  0  0  0  0  0  0  0  0  0  0  0
    3.0865   -5.6524    0.0000 C   0  0  0  0  0  0  0  0  0  0  0  0
    7.4252   -8.0612    0.0000 C   0  0  0  0  0  0  0  0  0  0  0  0
    2.8987   -6.5643    0.0000 C   0  0  0  0  0  0  0  0  0  0  0  0
    6.7504   -8.7028    0.0000 C   0  0  0  0  0  0  0  0  0  0  0  0
    5.9838   -1.5649    0.0000 C   0  0  0  0  0  0  0  0  0  0  0  0
    3.7534   -5.8441    0.0000 C   0  0  0  0  0  0  0  0  0  0  0  0
    6.5166   -9.6668    0.0000 C   0  0  0  0  0  0  0  0  0  0  0  0
    3.8987   -6.5643    0.0000 C   0  0  0  0  0  0  0  0  0  0  0  0
    3.3987   -8.1032    0.0000 C   0  0  0  0  0  0  0  0  0  0  0  0
    4.9566   -9.0625    0.0000 C   0  0  0  0  0  0  0  0  0  0  0  0
    5.5440   -9.8618    0.0000 C   0  0  0  0  0  0  0  0  0  0  0  0
    4.2077   -7.5154    0.0000 C   0  0  0  0  0  0  0  0  0  0  0  0
    4.0866   -8.7306    0.0000 C   0  0  0  0  0  0  0  0  0  0  0  0
    7.2093  -10.3879    0.0000 C   0  0  0  0  0  0  0  0  0  0  0  0
    4.4865   -5.7553    0.0000 C   0  0  0  0  0  0  0  0  0  0  0  0
    5.1828  -10.7943    0.0000 C   0  0  0  0  0  0  0  0  0  0  0  0
   10.6723    7.7097    0.0000 C   0  0  1  0  0  0  0  0  0  0  0  0
    9.1095    4.6182    0.0000 C   0  0  2  0  0  0  0  0  0  0  0  0
   10.7278    6.7112    0.0000 C   0  0  0  0  0  0  0  0  0  0  0  0
    9.9464    5.1654    0.0000 C   0  0  0  0  0  0  0  0  0  0  0  0
    9.8909    6.1639    0.0000 C   0  0  0  0  0  0  0  0  0  0  0  0
    6.7652   -0.0191    0.0000 C   0  0  0  0  0  0  0  0  0  0  0  0
    4.5823   -8.4426    0.0000 C   0  0  0  0  0  0  0  0  0  0  0  0
   11.5093    8.2570    0.0000 C   0  0  0  0  0  0  0  0  0  0  0  0
    9.1650    3.6197    0.0000 C   0  0  0  0  0  0  0  0  0  0  0  0
    6.9312  -11.3485    0.0000 C   0  0  0  0  0  0  0  0  0  0  0  0
   11.4538    9.2554    0.0000 C   0  0  0  0  0  0  0  0  0  0  0  0
    8.3280    3.0724    0.0000 C   0  0  0  0  0  0  0  0  0  0  0  0
    9.7799    8.1608    0.0000 C   0  0  0  0  0  0  0  0  0  0  0  0
   12.2907    9.8027    0.0000 C   0  0  0  0  0  0  0  0  0  0  0  0
    8.3836    2.0739    0.0000 C   0  0  0  0  0  0  0  0  0  0  0  0
    7.6021    0.5282    0.0000 C   0  0  0  0  0  0  0  0  0  0  0  0
    8.2170    5.0693    0.0000 C   0  0  0  0  0  0  0  0  0  0  0  0
    7.5466    1.5266    0.0000 C   0  0  0  0  0  0  0  0  0  0  0  0
   12.2352   10.8012    0.0000 C   0  0  0  0  0  0  0  0  0  0  0  0
    4.2733   -9.3936    0.0000 C   0  0  0  0  0  0  0  0  0  0  0  0
    6.6542    1.9778    0.0000 C   0  0  0  0  0  0  0  0  0  0  0  0
   13.0721   11.3485    0.0000 C   0  0  0  0  0  0  0  0  0  0  0  0
   11.3428   11.2523    0.0000 C   0  0  0  0  0  0  0  0  0  0  0  0
    5.7127   -3.6878    0.0000 H   0  0  0  0  0  0  0  0  0  0  0  0
    3.7551   -4.1730    0.0000 H   0  0  0  0  0  0  0  0  0  0  0  0
    4.9583   -2.5407    0.0000 H   0  0  0  0  0  0  0  0  0  0  0  0
    4.5987   -3.2520    0.0000 H   0  0  0  0  0  0  0  0  0  0  0  0
    5.6435   -7.3498    0.0000 H   0  0  0  0  0  0  0  0  0  0  0  0
    4.5003   -3.1656    0.0000 H   0  0  0  0  0  0  0  0  0  0  0  0
    3.6781   -2.8609    0.0000 H   0  0  0  0  0  0  0  0  0  0  0  0
    3.3734   -3.6830    0.0000 H   0  0  0  0  0  0  0  0  0  0  0  0
    6.2833   -3.1333    0.0000 H   0  0  0  0  0  0  0  0  0  0  0  0
    6.6429   -2.4220    0.0000 H   0  0  0  0  0  0  0  0  0  0  0  0
    5.6475   -7.3396    0.0000 H   0  0  0  0  0  0  0  0  0  0  0  0
    5.5349   -8.2091    0.0000 H   0  0  0  0  0  0  0  0  0  0  0  0
    6.4044   -8.3218    0.0000 H   0  0  0  0  0  0  0  0  0  0  0  0
    2.5132   -5.4164    0.0000 H   0  0  0  0  0  0  0  0  0  0  0  0
    7.9287   -8.4230    0.0000 H   0  0  0  0  0  0  0  0  0  0  0  0
    3.2938   -5.4280    0.0000 H   0  0  0  0  0  0  0  0  0  0  0  0
    3.3372   -6.3037    0.0000 H   0  0  0  0  0  0  0  0  0  0  0  0
    4.2129   -6.2603    0.0000 H   0  0  0  0  0  0  0  0  0  0  0  0
    2.0000   -7.7070    0.0000 H   0  0  0  0  0  0  0  0  0  0  0  0
    6.0095   -9.6607    0.0000 H   0  0  0  0  0  0  0  0  0  0  0  0
    3.7616   -9.2585    0.0000 H   0  0  0  0  0  0  0  0  0  0  0  0
    7.7659  -10.6612    0.0000 H   0  0  0  0  0  0  0  0  0  0  0  0
    7.5751   -9.8873    0.0000 H   0  0  0  0  0  0  0  0  0  0  0  0
    4.9880   -6.1197    0.0000 H   0  0  0  0  0  0  0  0  0  0  0  0
    4.8509   -5.2537    0.0000 H   0  0  0  0  0  0  0  0  0  0  0  0
    3.9849   -5.3909    0.0000 H   0  0  0  0  0  0  0  0  0  0  0  0
   10.1534    7.3703    0.0000 H   0  0  0  0  0  0  0  0  0  0  0  0
    4.6046  -10.5703    0.0000 H   0  0  0  0  0  0  0  0  0  0  0  0
    4.9588  -11.3724    0.0000 H   0  0  0  0  0  0  0  0  0  0  0  0
    5.7609  -11.0182    0.0000 H   0  0  0  0  0  0  0  0  0  0  0  0
    9.0751    5.2372    0.0000 H   0  0  0  0  0  0  0  0  0  0  0  0
   10.9719    6.1413    0.0000 H   0  0  0  0  0  0  0  0  0  0  0  0
   11.3315    6.8526    0.0000 H   0  0  0  0  0  0  0  0  0  0  0  0
   10.1905    4.5955    0.0000 H   0  0  0  0  0  0  0  0  0  0  0  0
   10.5501    5.3068    0.0000 H   0  0  0  0  0  0  0  0  0  0  0  0
    9.6468    6.7338    0.0000 H   0  0  0  0  0  0  0  0  0  0  0  0
    9.2872    6.0225    0.0000 H   0  0  0  0  0  0  0  0  0  0  0  0
    6.5211    0.5508    0.0000 H   0  0  0  0  0  0  0  0  0  0  0  0
    6.1615   -0.1605    0.0000 H   0  0  0  0  0  0  0  0  0  0  0  0
    5.2019   -8.4209    0.0000 H   0  0  0  0  0  0  0  0  0  0  0  0
   11.7533    7.6870    0.0000 H   0  0  0  0  0  0  0  0  0  0  0  0
   12.1129    8.3984    0.0000 H   0  0  0  0  0  0  0  0  0  0  0  0
    9.4090    3.0498    0.0000 H   0  0  0  0  0  0  0  0  0  0  0  0
    9.7686    3.7611    0.0000 H   0  0  0  0  0  0  0  0  0  0  0  0
    6.3356  -11.1760    0.0000 H   0  0  0  0  0  0  0  0  0  0  0  0
    6.7587  -11.9440    0.0000 H   0  0  0  0  0  0  0  0  0  0  0  0
    7.5267  -11.5209    0.0000 H   0  0  0  0  0  0  0  0  0  0  0  0
   11.2097    9.8254    0.0000 H   0  0  0  0  0  0  0  0  0  0  0  0
   10.8501    9.1140    0.0000 H   0  0  0  0  0  0  0  0  0  0  0  0
    8.0840    3.6423    0.0000 H   0  0  0  0  0  0  0  0  0  0  0  0
    7.7244    2.9310    0.0000 H   0  0  0  0  0  0  0  0  0  0  0  0
   12.5348    9.2328    0.0000 H   0  0  0  0  0  0  0  0  0  0  0  0
   12.8944    9.9441    0.0000 H   0  0  0  0  0  0  0  0  0  0  0  0
   10.0596    8.7141    0.0000 H   0  0  0  0  0  0  0  0  0  0  0  0
    9.2266    8.4406    0.0000 H   0  0  0  0  0  0  0  0  0  0  0  0
    9.5002    7.6075    0.0000 H   0  0  0  0  0  0  0  0  0  0  0  0
    8.6276    1.5040    0.0000 H   0  0  0  0  0  0  0  0  0  0  0  0
    8.9872    2.2153    0.0000 H   0  0  0  0  0  0  0  0  0  0  0  0
    8.1554    0.2485    0.0000 H   0  0  0  0  0  0  0  0  0  0  0  0
    8.4968    5.6226    0.0000 H   0  0  0  0  0  0  0  0  0  0  0  0
    7.6637    5.3490    0.0000 H   0  0  0  0  0  0  0  0  0  0  0  0
    7.9373    4.5160    0.0000 H   0  0  0  0  0  0  0  0  0  0  0  0
   12.7885   10.5215    0.0000 H   0  0  0  0  0  0  0  0  0  0  0  0
    3.6668   -9.5226    0.0000 H   0  0  0  0  0  0  0  0  0  0  0  0
    4.6882   -9.8544    0.0000 H   0  0  0  0  0  0  0  0  0  0  0  0
    6.9339    2.5311    0.0000 H   0  0  0  0  0  0  0  0  0  0  0  0
    6.1009    2.2575    0.0000 H   0  0  0  0  0  0  0  0  0  0  0  0
    6.3745    1.4245    0.0000 H   0  0  0  0  0  0  0  0  0  0  0  0
   13.4115   10.8296    0.0000 H   0  0  0  0  0  0  0  0  0  0  0  0
   13.5910   11.6878    0.0000 H   0  0  0  0  0  0  0  0  0  0  0  0
   12.7328   11.8674    0.0000 H   0  0  0  0  0  0  0  0  0  0  0  0
   11.6225   11.8057    0.0000 H   0  0  0  0  0  0  0  0  0  0  0  0
   10.7894   11.5321    0.0000 H   0  0  0  0  0  0  0  0  0  0  0  0
   11.0630   10.6990    0.0000 H   0  0  0  0  0  0  0  0  0  0  0  0
  1  2  1  0  0  0  0
  1 12  1  0  0  0  0
  2 13  1  0  0  0  0
 13  3  1  1  0  0  0
  3 71  1  0  0  0  0
  4 21  1  0  0  0  0
  4 33  1  0  0  0  0
  5 21  2  0  0  0  0
  6 32  1  0  0  0  0
  6 49  1  0  0  0  0
  7 32  2  0  0  0  0
  8 18  2  0  0  0  0
  8 23  1  0  0  0  0
  9 17  1  0  0  0  0
  9 24  2  0  0  0  0
 10 30  1  0  0  0  0
 10 36  1  0  0  0  0
 10 85  1  0  0  0  0
 11 31  1  0  0  0  0
 11 37  1  0  0  0  0
 11 86  1  0  0  0  0
 12 13  1  0  0  0  0
 12 14  1  0  0  0  0
 12 21  1  1  0  0  0
 13 15  1  0  0  0  0
 14 17  2  0  0  0  0
 14 18  1  0  0  0  0
 15 17  1  0  0  0  0
 15 20  2  0  0  0  0
 16 18  1  0  0  0  0
 16 19  1  0  0  0  0
 16 22  1  6  0  0  0
 16 67  1  0  0  0  0
 19 23  1  0  0  0  0
 19 25  1  1  0  0  0
 19 68  1  0  0  0  0
 20 24  1  0  0  0  0
 20 27  1  0  0  0  0
 22 26  1  0  0  0  0
 22 69  1  0  0  0  0
 22 70  1  0  0  0  0
 23 28  2  0  0  0  0
 24 29  1  0  0  0  0
 25 72  1  0  0  0  0
 25 73  1  0  0  0  0
 25 74  1  0  0  0  0
 26 32  1  0  0  0  0
 26 75  1  0  0  0  0
 26 76  1  0  0  0  0
 27 77  1  0  0  0  0
 27 78  1  0  0  0  0
 27 79  1  0  0  0  0
 28 30  1  0  0  0  0
 28 80  1  0  0  0  0
 29 31  2  0  0  0  0
 29 81  1  0  0  0  0
 30 35  2  0  0  0  0
 31 34  1  0  0  0  0
 33 82  1  0  0  0  0
 33 83  1  0  0  0  0
 33 84  1  0  0  0  0
 34 38  2  0  0  0  0
 34 41  1  0  0  0  0
 35 39  1  0  0  0  0
 35 42  1  0  0  0  0
 36 39  2  0  0  0  0
 36 40  1  0  0  0  0
 37 38  1  0  0  0  0
 37 40  2  0  0  0  0
 38 43  1  0  0  0  0
 39 50  1  0  0  0  0
 40 87  1  0  0  0  0
 41 53  1  0  0  0  0
 41 88  1  0  0  0  0
 41 89  1  0  0  0  0
 42 90  1  0  0  0  0
 42 91  1  0  0  0  0
 42 92  1  0  0  0  0
 43 94  1  0  0  0  0
 43 95  1  0  0  0  0
 43 96  1  0  0  0  0
 44 46  1  0  0  0  0
 44 51  1  0  0  0  0
 44 56  1  6  0  0  0
 44 93  1  0  0  0  0
 45 47  1  0  0  0  0
 45 52  1  0  0  0  0
 45 60  1  6  0  0  0
 45 97  1  0  0  0  0
 46 48  1  0  0  0  0
 46 98  1  0  0  0  0
 46 99  1  0  0  0  0
 47 48  1  0  0  0  0
 47100  1  0  0  0  0
 47101  1  0  0  0  0
 48102  1  0  0  0  0
 48103  1  0  0  0  0
 49 59  1  0  0  0  0
 49104  1  0  0  0  0
 49105  1  0  0  0  0
 50 63  2  0  0  0  0
 50106  1  0  0  0  0
 51 54  1  0  0  0  0
 51107  1  0  0  0  0
 51108  1  0  0  0  0
 52 55  1  0  0  0  0
 52109  1  0  0  0  0
 52110  1  0  0  0  0
 53111  1  0  0  0  0
 53112  1  0  0  0  0
 53113  1  0  0  0  0
 54 57  1  0  0  0  0
 54114  1  0  0  0  0
 54115  1  0  0  0  0
 55 58  1  0  0  0  0
 55116  1  0  0  0  0
 55117  1  0  0  0  0
 56120  1  0  0  0  0
 56121  1  0  0  0  0
 56122  1  0  0  0  0
 57 62  1  0  0  0  0
 57118  1  0  0  0  0
 57119  1  0  0  0  0
 58 61  1  0  0  0  0
 58123  1  0  0  0  0
 58124  1  0  0  0  0
 59 61  2  0  0  0  0
 59125  1  0  0  0  0
 60126  1  0  0  0  0
 60127  1  0  0  0  0
 60128  1  0  0  0  0
 61 64  1  0  0  0  0
 62 65  1  0  0  0  0
 62 66  1  0  0  0  0
 62129  1  0  0  0  0
 63130  1  0  0  0  0
 63131  1  0  0  0  0
 64132  1  0  0  0  0
 64133  1  0  0  0  0
 64134  1  0  0  0  0
 65135  1  0  0  0  0
 65136  1  0  0  0  0
 65137  1  0  0  0  0
 66138  1  0  0  0  0
 66139  1  0  0  0  0
 66140  1  0  0  0  0
M  END
> <PUBCHEM_COMPOUND_CID>
101838306

> <PUBCHEM_COMPOUND_CANONICALIZED>
1

> <PUBCHEM_CACTVS_COMPLEXITY>
1680

> <PUBCHEM_CACTVS_HBOND_ACCEPTOR>
9

> <PUBCHEM_CACTVS_HBOND_DONOR>
3

> <PUBCHEM_CACTVS_ROTATABLE_BOND>
22

> <PUBCHEM_CACTVS_SUBSKEYS>
AAADcfB/uAAAAAAAAAAAAAAAAABIAeLFixAAAAAABIAAAAAB/gAAHgAQDAAADUyhngIyyLLJlgCoAyTyTAKCgCAhAiAImSFwbJgJJnbA9dGGdAhn8AHL+Ae8+feegAAAAAAAAAAAAAAAAAAAAaEADSAAAA==

> <PUBCHEM_IUPAC_OPENEYE_NAME>
methyl (3R,6S,23S,24S)-13-ethyl-6-hydroxy-14,19,23,28-tetramethyl-24-[3-oxo-3-[(E,7R,11R)-3,7,11,15-tetramethylhexadec-2-enoxy]propyl]-18-vinyl-4,5-dioxa-9,25,26,27-tetrazaheptacyclo[20.2.1.17,10.112,15.117,20.02,8.03,6]octacosa-1(25),2(8),7(28),9,11,13,15,17,19,21-decaene-3-carboxylate

> <PUBCHEM_IUPAC_CAS_NAME>
(3R,6S,23S,24S)-18-ethenyl-13-ethyl-6-hydroxy-14,19,23,28-tetramethyl-24-[3-oxo-3-[(E,7R,11R)-3,7,11,15-tetramethylhexadec-2-enoxy]propyl]-4,5-dioxa-9,25,26,27-tetrazaheptacyclo[20.2.1.17,10.112,15.117,20.02,8.03,6]octacosa-1(25),2(8),7(28),9,11,13,15,17,19,21-decaene-3-carboxylic acid methyl ester

> <PUBCHEM_IUPAC_NAME_MARKUP>
methyl (3<I>R</I>,6<I>S</I>,23<I>S</I>,24<I>S</I>)-18-ethenyl-13-ethyl-6-hydroxy-14,19,23,28-tetramethyl-24-[3-oxo-3-[(<I>E</I>,7<I>R</I>,11<I>R</I>)-3,7,11,15-tetramethylhexadec-2-enoxy]propyl]-4,5-dioxa-9,25,26,27-tetrazaheptacyclo[20.2.1.1<SUP>7,10</SUP>.1<SUP>12,15</SUP>.1<SUP>17,20</SUP>.0<SUP>2,8</SUP>.0<SUP>3,6</SUP>]octacosa-1(25),2(8),7(28),9,11,13,15,17,19,21-decaene-3-carboxylate

> <PUBCHEM_IUPAC_NAME>
methyl (3R,6S,23S,24S)-18-ethenyl-13-ethyl-6-hydroxy-14,19,23,28-tetramethyl-24-[3-oxo-3-[(E,7R,11R)-3,7,11,15-tetramethylhexadec-2-enoxy]propyl]-4,5-dioxa-9,25,26,27-tetrazaheptacyclo[20.2.1.17,10.112,15.117,20.02,8.03,6]octacosa-1(25),2(8),7(28),9,11,13,15,17,19,21-decaene-3-carboxylate

> <PUBCHEM_IUPAC_SYSTEMATIC_NAME>
methyl (3R,6S,23S,24S)-18-ethenyl-13-ethyl-14,19,23,28-tetramethyl-6-oxidanyl-24-[3-oxidanylidene-3-[(E,7R,11R)-3,7,11,15-tetramethylhexadec-2-enoxy]propyl]-4,5-dioxa-9,25,26,27-tetrazaheptacyclo[20.2.1.17,10.112,15.117,20.02,8.03,6]octacosa-1(25),2(8),7(28),9,11,13,15,17,19,21-decaene-3-carboxylate

> <PUBCHEM_IUPAC_TRADITIONAL_NAME>
(3R,6S,23S,24S)-13-ethyl-6-hydroxy-24-[3-keto-3-[(E,7R,11R)-3,7,11,15-tetramethylhexadec-2-enoxy]propyl]-14,19,23,28-tetramethyl-18-vinyl-4,5-dioxa-9,25,26,27-tetrazaheptacyclo[20.2.1.17,10.112,15.117,20.02,8.03,6]octacosa-1(25),2(8),7(28),9,11,13,15,17,19,21-decaene-3-carboxylic acid methyl ester

> <PUBCHEM_IUPAC_INCHI>
InChI=1S/C55H74N4O7/c1-13-39-35(8)42-28-44-37(10)41(24-25-48(60)64-27-26-34(7)23-17-22-33(6)21-16-20-32(5)19-15-18-31(3)4)51(58-44)50-52-49(55(62)54(50,65-66-55)53(61)63-12)38(11)45(59-52)30-47-40(14-2)36(9)43(57-47)29-46(39)56-42/h13,26,28-33,37,41,56-57,62H,1,14-25,27H2,2-12H3/b34-26+,42-28?,43-29?,44-28?,45-30?,46-29?,47-30?,51-50?/t32-,33-,37+,41+,54+,55+/m1/s1

> <PUBCHEM_IUPAC_INCHIKEY>
LTBPOHBEEVXQPS-JENXQTTPSA-N

> <PUBCHEM_XLOGP3_AA>
13.2

> <PUBCHEM_EXACT_MASS>
902.555751

> <PUBCHEM_MOLECULAR_FORMULA>
C55H74N4O7

> <PUBCHEM_MOLECULAR_WEIGHT>
903.2

> <PUBCHEM_OPENEYE_CAN_SMILES>
CCC1=C(C2=CC3=C(C(=C(N3)C=C4C(C(C(=N4)C5=C6C(=C(C(=N6)C=C1N2)C)C7(C5(OO7)C(=O)OC)O)CCC(=O)OCC=C(C)CCCC(C)CCCC(C)CCCC(C)C)C)C)C=C)C

> <PUBCHEM_OPENEYE_ISO_SMILES>
CCC1=C(C2=CC3=C(C(=C(N3)C=C4[C@H]([C@@H](C(=N4)C5=C6C(=C(C(=N6)C=C1N2)C)[C@]7([C@@]5(OO7)C(=O)OC)O)CCC(=O)OC/C=C(\C)/CCC[C@H](C)CCC[C@H](C)CCCC(C)C)C)C)C=C)C

> <PUBCHEM_CACTVS_TPSA>
149

> <PUBCHEM_MONOISOTOPIC_WEIGHT>
902.555751

> <PUBCHEM_TOTAL_CHARGE>
0

> <PUBCHEM_HEAVY_ATOM_COUNT>
66

> <PUBCHEM_ATOM_DEF_STEREO_COUNT>
6

> <PUBCHEM_ATOM_UDEF_STEREO_COUNT>
0

> <PUBCHEM_BOND_DEF_STEREO_COUNT>
1

> <PUBCHEM_BOND_UDEF_STEREO_COUNT>
0

> <PUBCHEM_ISOTOPIC_ATOM_COUNT>
0

> <PUBCHEM_COMPONENT_COUNT>
1

> <PUBCHEM_CACTVS_TAUTO_COUNT>
-1

> <PUBCHEM_COORDINATE_TYPE>
1
5
255

> <PUBCHEM_BONDANNOTATIONS>
10  30  8
10  36  8
11  31  8
11  37  8
12  21  5
14  17  8
14  18  8
16  22  6
19  25  5
23  28  8
24  29  8
28  30  8
29  31  8
13  3  5
30  35  8
31  34  8
34  38  8
35  39  8
36  39  8
36  40  8
37  38  8
37  40  8
44  56  6
45  60  6
8  18  8
8  23  8
9  17  8
9  24  8

$$$$
