6439696
  -OEChem-08242011052D

106104  0     0  0  0  0  0  0999 V2000
    0.5369    1.5000    0.0000 O   0  0  0  0  0  0  0  0  0  0  0  0
    1.8360   11.5369    0.0000 O   0  0  0  0  0  0  0  0  0  0  0  0
    1.4030    0.0000    0.0000 O   0  0  0  0  0  0  0  0  0  0  0  0
    2.7020   10.0369    0.0000 O   0  0  0  0  0  0  0  0  0  0  0  0
   10.9292    4.5000    0.0000 C   0  0  0  0  0  0  0  0  0  0  0  0
   10.0632    4.0000    0.0000 C   0  0  0  0  0  0  0  0  0  0  0  0
   10.9292    5.5000    0.0000 C   0  0  0  0  0  0  0  0  0  0  0  0
   10.0632    3.0000    0.0000 C   0  0  0  0  0  0  0  0  0  0  0  0
    5.7331    1.5000    0.0000 C   0  0  0  0  0  0  0  0  0  0  0  0
    4.8671    1.0000    0.0000 C   0  0  0  0  0  0  0  0  0  0  0  0
    6.5991    1.0000    0.0000 C   0  0  0  0  0  0  0  0  0  0  0  0
   11.7953    6.0000    0.0000 C   0  0  0  0  0  0  0  0  0  0  0  0
    4.0010    1.5000    0.0000 C   0  0  0  0  0  0  0  0  0  0  0  0
    9.1972    2.5000    0.0000 C   0  0  0  0  0  0  0  0  0  0  0  0
    7.4651    1.5000    0.0000 C   0  0  0  0  0  0  0  0  0  0  0  0
    6.1661   11.0369    0.0000 C   0  0  0  0  0  0  0  0  0  0  0  0
    7.0321   11.5369    0.0000 C   0  0  0  0  0  0  0  0  0  0  0  0
    3.1350    1.0000    0.0000 C   0  0  0  0  0  0  0  0  0  0  0  0
    5.3001   11.5369    0.0000 C   0  0  0  0  0  0  0  0  0  0  0  0
   11.7953    7.0000    0.0000 C   0  0  0  0  0  0  0  0  0  0  0  0
    7.8982   11.0369    0.0000 C   0  0  0  0  0  0  0  0  0  0  0  0
    9.1972    1.5000    0.0000 C   0  0  0  0  0  0  0  0  0  0  0  0
    8.3312    1.0000    0.0000 C   0  0  0  0  0  0  0  0  0  0  0  0
    4.4340   11.0369    0.0000 C   0  0  0  0  0  0  0  0  0  0  0  0
    8.7642   11.5369    0.0000 C   0  0  0  0  0  0  0  0  0  0  0  0
    2.2690    1.5000    0.0000 C   0  0  0  0  0  0  0  0  0  0  0  0
    3.5680   11.5369    0.0000 C   0  0  0  0  0  0  0  0  0  0  0  0
   12.6613    7.5000    0.0000 C   0  0  0  0  0  0  0  0  0  0  0  0
    9.6302   11.0369    0.0000 C   0  0  0  0  0  0  0  0  0  0  0  0
    1.4030    1.0000    0.0000 C   0  0  0  0  0  0  0  0  0  0  0  0
   10.4962   11.5369    0.0000 C   0  0  0  0  0  0  0  0  0  0  0  0
   10.4962   15.5369    0.0000 C   0  0  0  0  0  0  0  0  0  0  0  0
    2.7020   11.0369    0.0000 C   0  0  0  0  0  0  0  0  0  0  0  0
    9.6302   16.0369    0.0000 C   0  0  0  0  0  0  0  0  0  0  0  0
   10.4962   14.5369    0.0000 C   0  0  0  0  0  0  0  0  0  0  0  0
   10.4962   12.5369    0.0000 C   0  0  0  0  0  0  0  0  0  0  0  0
    9.6302   17.0369    0.0000 C   0  0  0  0  0  0  0  0  0  0  0  0
   11.3623   14.0369    0.0000 C   0  0  0  0  0  0  0  0  0  0  0  0
   11.3623   13.0369    0.0000 C   0  0  0  0  0  0  0  0  0  0  0  0
    8.7642   17.5369    0.0000 C   0  0  0  0  0  0  0  0  0  0  0  0
   11.1413    3.9174    0.0000 H   0  0  0  0  0  0  0  0  0  0  0  0
   11.5398    4.6077    0.0000 H   0  0  0  0  0  0  0  0  0  0  0  0
    9.8512    4.5826    0.0000 H   0  0  0  0  0  0  0  0  0  0  0  0
    9.4526    3.8923    0.0000 H   0  0  0  0  0  0  0  0  0  0  0  0
   10.7172    6.0826    0.0000 H   0  0  0  0  0  0  0  0  0  0  0  0
   10.3187    5.3923    0.0000 H   0  0  0  0  0  0  0  0  0  0  0  0
   10.2753    2.4174    0.0000 H   0  0  0  0  0  0  0  0  0  0  0  0
   10.6738    3.1077    0.0000 H   0  0  0  0  0  0  0  0  0  0  0  0
    6.1316    1.9750    0.0000 H   0  0  0  0  0  0  0  0  0  0  0  0
    5.3346    1.9750    0.0000 H   0  0  0  0  0  0  0  0  0  0  0  0
    4.4685    0.5251    0.0000 H   0  0  0  0  0  0  0  0  0  0  0  0
    5.2656    0.5251    0.0000 H   0  0  0  0  0  0  0  0  0  0  0  0
    6.2006    0.5251    0.0000 H   0  0  0  0  0  0  0  0  0  0  0  0
    6.9976    0.5251    0.0000 H   0  0  0  0  0  0  0  0  0  0  0  0
   12.0073    5.4174    0.0000 H   0  0  0  0  0  0  0  0  0  0  0  0
   12.4058    6.1077    0.0000 H   0  0  0  0  0  0  0  0  0  0  0  0
    4.3996    1.9750    0.0000 H   0  0  0  0  0  0  0  0  0  0  0  0
    3.6025    1.9750    0.0000 H   0  0  0  0  0  0  0  0  0  0  0  0
    8.9851    3.0826    0.0000 H   0  0  0  0  0  0  0  0  0  0  0  0
    8.5866    2.3923    0.0000 H   0  0  0  0  0  0  0  0  0  0  0  0
    7.8637    1.9750    0.0000 H   0  0  0  0  0  0  0  0  0  0  0  0
    7.0666    1.9750    0.0000 H   0  0  0  0  0  0  0  0  0  0  0  0
    5.7676   10.5620    0.0000 H   0  0  0  0  0  0  0  0  0  0  0  0
    6.5646   10.5620    0.0000 H   0  0  0  0  0  0  0  0  0  0  0  0
    7.4306   12.0119    0.0000 H   0  0  0  0  0  0  0  0  0  0  0  0
    6.6336   12.0119    0.0000 H   0  0  0  0  0  0  0  0  0  0  0  0
    5.6986   12.0119    0.0000 H   0  0  0  0  0  0  0  0  0  0  0  0
    4.9016   12.0119    0.0000 H   0  0  0  0  0  0  0  0  0  0  0  0
    2.7365    0.5251    0.0000 H   0  0  0  0  0  0  0  0  0  0  0  0
    3.5335    0.5251    0.0000 H   0  0  0  0  0  0  0  0  0  0  0  0
   11.5832    7.5826    0.0000 H   0  0  0  0  0  0  0  0  0  0  0  0
   11.1847    6.8923    0.0000 H   0  0  0  0  0  0  0  0  0  0  0  0
    7.4996   10.5620    0.0000 H   0  0  0  0  0  0  0  0  0  0  0  0
    8.2967   10.5620    0.0000 H   0  0  0  0  0  0  0  0  0  0  0  0
    9.7341    1.1900    0.0000 H   0  0  0  0  0  0  0  0  0  0  0  0
    8.3312    0.3800    0.0000 H   0  0  0  0  0  0  0  0  0  0  0  0
    4.0355   10.5620    0.0000 H   0  0  0  0  0  0  0  0  0  0  0  0
    4.8326   10.5620    0.0000 H   0  0  0  0  0  0  0  0  0  0  0  0
    9.1627   12.0119    0.0000 H   0  0  0  0  0  0  0  0  0  0  0  0
    8.3656   12.0119    0.0000 H   0  0  0  0  0  0  0  0  0  0  0  0
    2.6675    1.9750    0.0000 H   0  0  0  0  0  0  0  0  0  0  0  0
    1.8705    1.9750    0.0000 H   0  0  0  0  0  0  0  0  0  0  0  0
    3.9666   12.0119    0.0000 H   0  0  0  0  0  0  0  0  0  0  0  0
    3.1695   12.0119    0.0000 H   0  0  0  0  0  0  0  0  0  0  0  0
   12.9713    6.9631    0.0000 H   0  0  0  0  0  0  0  0  0  0  0  0
   13.1982    7.8100    0.0000 H   0  0  0  0  0  0  0  0  0  0  0  0
   12.3513    8.0369    0.0000 H   0  0  0  0  0  0  0  0  0  0  0  0
    9.6302   10.4169    0.0000 H   0  0  0  0  0  0  0  0  0  0  0  0
   11.0332   11.2269    0.0000 H   0  0  0  0  0  0  0  0  0  0  0  0
   11.1068   15.4293    0.0000 H   0  0  0  0  0  0  0  0  0  0  0  0
   10.7083   16.1195    0.0000 H   0  0  0  0  0  0  0  0  0  0  0  0
    9.0196   16.1446    0.0000 H   0  0  0  0  0  0  0  0  0  0  0  0
    9.4182   15.4543    0.0000 H   0  0  0  0  0  0  0  0  0  0  0  0
    9.8856   14.6446    0.0000 H   0  0  0  0  0  0  0  0  0  0  0  0
   10.2842   13.9543    0.0000 H   0  0  0  0  0  0  0  0  0  0  0  0
   10.2842   13.1195    0.0000 H   0  0  0  0  0  0  0  0  0  0  0  0
    9.8856   12.4293    0.0000 H   0  0  0  0  0  0  0  0  0  0  0  0
   10.2408   16.9293    0.0000 H   0  0  0  0  0  0  0  0  0  0  0  0
    9.8423   17.6195    0.0000 H   0  0  0  0  0  0  0  0  0  0  0  0
   11.8992   14.3469    0.0000 H   0  0  0  0  0  0  0  0  0  0  0  0
   11.8992   12.7269    0.0000 H   0  0  0  0  0  0  0  0  0  0  0  0
    9.0742   18.0739    0.0000 H   0  0  0  0  0  0  0  0  0  0  0  0
    8.2272   17.8469    0.0000 H   0  0  0  0  0  0  0  0  0  0  0  0
    8.4542   17.0000    0.0000 H   0  0  0  0  0  0  0  0  0  0  0  0
    0.0000    1.1900    0.0000 H   0  0  0  0  0  0  0  0  0  0  0  0
    1.2990   11.2269    0.0000 H   0  0  0  0  0  0  0  0  0  0  0  0
  1 30  1  0  0  0  0
  1105  1  0  0  0  0
  2 33  1  0  0  0  0
  2106  1  0  0  0  0
  3 30  2  0  0  0  0
  4 33  2  0  0  0  0
  5  6  1  0  0  0  0
  5  7  1  0  0  0  0
  5 41  1  0  0  0  0
  5 42  1  0  0  0  0
  6  8  1  0  0  0  0
  6 43  1  0  0  0  0
  6 44  1  0  0  0  0
  7 12  1  0  0  0  0
  7 45  1  0  0  0  0
  7 46  1  0  0  0  0
  8 14  1  0  0  0  0
  8 47  1  0  0  0  0
  8 48  1  0  0  0  0
  9 10  1  0  0  0  0
  9 11  1  0  0  0  0
  9 49  1  0  0  0  0
  9 50  1  0  0  0  0
 10 13  1  0  0  0  0
 10 51  1  0  0  0  0
 10 52  1  0  0  0  0
 11 15  1  0  0  0  0
 11 53  1  0  0  0  0
 11 54  1  0  0  0  0
 12 20  1  0  0  0  0
 12 55  1  0  0  0  0
 12 56  1  0  0  0  0
 13 18  1  0  0  0  0
 13 57  1  0  0  0  0
 13 58  1  0  0  0  0
 14 22  1  0  0  0  0
 14 59  1  0  0  0  0
 14 60  1  0  0  0  0
 15 23  1  0  0  0  0
 15 61  1  0  0  0  0
 15 62  1  0  0  0  0
 16 17  1  0  0  0  0
 16 19  1  0  0  0  0
 16 63  1  0  0  0  0
 16 64  1  0  0  0  0
 17 21  1  0  0  0  0
 17 65  1  0  0  0  0
 17 66  1  0  0  0  0
 18 26  1  0  0  0  0
 18 69  1  0  0  0  0
 18 70  1  0  0  0  0
 19 24  1  0  0  0  0
 19 67  1  0  0  0  0
 19 68  1  0  0  0  0
 20 28  1  0  0  0  0
 20 71  1  0  0  0  0
 20 72  1  0  0  0  0
 21 25  1  0  0  0  0
 21 73  1  0  0  0  0
 21 74  1  0  0  0  0
 22 23  2  0  0  0  0
 22 75  1  0  0  0  0
 23 76  1  0  0  0  0
 24 27  1  0  0  0  0
 24 77  1  0  0  0  0
 24 78  1  0  0  0  0
 25 29  1  0  0  0  0
 25 79  1  0  0  0  0
 25 80  1  0  0  0  0
 26 30  1  0  0  0  0
 26 81  1  0  0  0  0
 26 82  1  0  0  0  0
 27 33  1  0  0  0  0
 27 83  1  0  0  0  0
 27 84  1  0  0  0  0
 28 85  1  0  0  0  0
 28 86  1  0  0  0  0
 28 87  1  0  0  0  0
 29 31  2  0  0  0  0
 29 88  1  0  0  0  0
 31 36  1  0  0  0  0
 31 89  1  0  0  0  0
 32 34  1  0  0  0  0
 32 35  1  0  0  0  0
 32 90  1  0  0  0  0
 32 91  1  0  0  0  0
 34 37  1  0  0  0  0
 34 92  1  0  0  0  0
 34 93  1  0  0  0  0
 35 38  1  0  0  0  0
 35 94  1  0  0  0  0
 35 95  1  0  0  0  0
 36 39  1  0  0  0  0
 36 96  1  0  0  0  0
 36 97  1  0  0  0  0
 37 40  1  0  0  0  0
 37 98  1  0  0  0  0
 37 99  1  0  0  0  0
 38 39  2  0  0  0  0
 38100  1  0  0  0  0
 39101  1  0  0  0  0
 40102  1  0  0  0  0
 40103  1  0  0  0  0
 40104  1  0  0  0  0
M  END
> <PUBCHEM_COMPOUND_CID>
6439696

> <PUBCHEM_COMPOUND_CANONICALIZED>
1

> <PUBCHEM_CACTVS_COMPLEXITY>
500

> <PUBCHEM_CACTVS_HBOND_ACCEPTOR>
4

> <PUBCHEM_CACTVS_HBOND_DONOR>
2

> <PUBCHEM_CACTVS_ROTATABLE_BOND>
29

> <PUBCHEM_CACTVS_SUBSKEYS>
AAADcfB8OAAAAAAAAAAAAAAAAAAAAAAAAAAAAAAAAAAAAAAAAAAAGgAACAAACACAgAACCAAAAgCIACDSCAAAAAAgAAAICAEAAAgAABIAAQAAQAAEgAAIAAOIyKCAAAAAAAAAAAAAAAAAAAAAAAAAAAAAAA==

> <PUBCHEM_IUPAC_OPENEYE_NAME>
(9Z,12Z)-octadeca-9,12-dienoic acid;(Z)-octadec-9-enoic acid

> <PUBCHEM_IUPAC_CAS_NAME>
(9Z,12Z)-octadeca-9,12-dienoic acid;(Z)-9-octadecenoic acid

> <PUBCHEM_IUPAC_NAME_MARKUP>
(9<I>Z</I>,12<I>Z</I>)-octadeca-9,12-dienoic acid;(<I>Z</I>)-octadec-9-enoic acid

> <PUBCHEM_IUPAC_NAME>
(9Z,12Z)-octadeca-9,12-dienoic acid;(Z)-octadec-9-enoic acid

> <PUBCHEM_IUPAC_SYSTEMATIC_NAME>
(9Z,12Z)-octadeca-9,12-dienoic acid;(Z)-octadec-9-enoic acid

> <PUBCHEM_IUPAC_TRADITIONAL_NAME>
(9Z,12Z)-octadeca-9,12-dienoic acid;oleic acid

> <PUBCHEM_IUPAC_INCHI>
InChI=1S/C18H34O2.C18H32O2/c2*1-2-3-4-5-6-7-8-9-10-11-12-13-14-15-16-17-18(19)20/h9-10H,2-8,11-17H2,1H3,(H,19,20);6-7,9-10H,2-5,8,11-17H2,1H3,(H,19,20)/b10-9-;7-6-,10-9-

> <PUBCHEM_IUPAC_INCHIKEY>
ONRGCKHNIPGJGT-BFIYWSAOSA-N

> <PUBCHEM_EXACT_MASS>
562.496111

> <PUBCHEM_MOLECULAR_FORMULA>
C36H66O4

> <PUBCHEM_MOLECULAR_WEIGHT>
562.9

> <PUBCHEM_OPENEYE_CAN_SMILES>
CCCCCCCCC=CCCCCCCCC(=O)O.CCCCCC=CCC=CCCCCCCCC(=O)O

> <PUBCHEM_OPENEYE_ISO_SMILES>
CCCCCCCC/C=C\CCCCCCCC(=O)O.CCCCC/C=C\C/C=C\CCCCCCCC(=O)O

> <PUBCHEM_CACTVS_TPSA>
74.6

> <PUBCHEM_MONOISOTOPIC_WEIGHT>
562.496111

> <PUBCHEM_TOTAL_CHARGE>
0

> <PUBCHEM_HEAVY_ATOM_COUNT>
40

> <PUBCHEM_ATOM_DEF_STEREO_COUNT>
0

> <PUBCHEM_ATOM_UDEF_STEREO_COUNT>
0

> <PUBCHEM_BOND_DEF_STEREO_COUNT>
3

> <PUBCHEM_BOND_UDEF_STEREO_COUNT>
0

> <PUBCHEM_ISOTOPIC_ATOM_COUNT>
0

> <PUBCHEM_COMPONENT_COUNT>
2

> <PUBCHEM_CACTVS_TAUTO_COUNT>
-1

> <PUBCHEM_COORDINATE_TYPE>
1
5
255

$$$$
