41920
  -OEChem-09032001022D

124123  0     0  0  0  0  0  0999 V2000
   14.1244    6.0000    0.0000 O   0  0  0  0  0  0  0  0  0  0  0  0
   12.3923    6.0000    0.0000 O   0  0  0  0  0  0  0  0  0  0  0  0
   11.5263    1.5000    0.0000 C   0  0  0  0  0  0  0  0  0  0  0  0
   11.5263    2.5000    0.0000 C   0  0  0  0  0  0  0  0  0  0  0  0
   10.6603    1.0000    0.0000 C   0  0  0  0  0  0  0  0  0  0  0  0
   12.3923    3.0000    0.0000 C   0  0  0  0  0  0  0  0  0  0  0  0
   10.6603    0.0000    0.0000 C   0  0  0  0  0  0  0  0  0  0  0  0
   12.3923    4.0000    0.0000 C   0  0  0  0  0  0  0  0  0  0  0  0
    9.7942   -0.5000    0.0000 C   0  0  0  0  0  0  0  0  0  0  0  0
   13.2583    4.5000    0.0000 C   0  0  0  0  0  0  0  0  0  0  0  0
    9.7942   -1.5000    0.0000 C   0  0  0  0  0  0  0  0  0  0  0  0
   13.2583    5.5000    0.0000 C   0  0  0  0  0  0  0  0  0  0  0  0
    8.9282   -2.0000    0.0000 C   0  0  0  0  0  0  0  0  0  0  0  0
    8.9282   -3.0000    0.0000 C   0  0  0  0  0  0  0  0  0  0  0  0
   18.4545    5.5000    0.0000 C   0  0  0  0  0  0  0  0  0  0  0  0
    8.0622    5.5000    0.0000 C   0  0  0  0  0  0  0  0  0  0  0  0
   17.5885    6.0000    0.0000 C   0  0  0  0  0  0  0  0  0  0  0  0
    8.9282    6.0000    0.0000 C   0  0  0  0  0  0  0  0  0  0  0  0
   16.7224    5.5000    0.0000 C   0  0  0  0  0  0  0  0  0  0  0  0
    9.7942    5.5000    0.0000 C   0  0  0  0  0  0  0  0  0  0  0  0
   19.3205    6.0000    0.0000 C   0  0  0  0  0  0  0  0  0  0  0  0
    7.1962    6.0000    0.0000 C   0  0  0  0  0  0  0  0  0  0  0  0
   15.8564    6.0000    0.0000 C   0  0  0  0  0  0  0  0  0  0  0  0
   10.6603    6.0000    0.0000 C   0  0  0  0  0  0  0  0  0  0  0  0
   20.1865    5.5000    0.0000 C   0  0  0  0  0  0  0  0  0  0  0  0
    6.3301    5.5000    0.0000 C   0  0  0  0  0  0  0  0  0  0  0  0
    8.0622   -3.5000    0.0000 C   0  0  0  0  0  0  0  0  0  0  0  0
   14.9904    5.5000    0.0000 C   0  0  0  0  0  0  0  0  0  0  0  0
   11.5263    5.5000    0.0000 C   0  0  0  0  0  0  0  0  0  0  0  0
   21.0526    6.0000    0.0000 C   0  0  0  0  0  0  0  0  0  0  0  0
    5.4641    6.0000    0.0000 C   0  0  0  0  0  0  0  0  0  0  0  0
   21.9186    5.5000    0.0000 C   0  0  0  0  0  0  0  0  0  0  0  0
    4.5981    5.5000    0.0000 C   0  0  0  0  0  0  0  0  0  0  0  0
    8.0622   -4.5000    0.0000 C   0  0  0  0  0  0  0  0  0  0  0  0
   22.7846    6.0000    0.0000 C   0  0  0  0  0  0  0  0  0  0  0  0
    3.7320    6.0000    0.0000 C   0  0  0  0  0  0  0  0  0  0  0  0
    7.1962   -5.0000    0.0000 C   0  0  0  0  0  0  0  0  0  0  0  0
   23.6506    5.5000    0.0000 C   0  0  0  0  0  0  0  0  0  0  0  0
    2.8660    5.5000    0.0000 C   0  0  0  0  0  0  0  0  0  0  0  0
    7.1962   -6.0000    0.0000 C   0  0  0  0  0  0  0  0  0  0  0  0
   24.5167    6.0000    0.0000 C   0  0  0  0  0  0  0  0  0  0  0  0
    2.0000    6.0000    0.0000 C   0  0  0  0  0  0  0  0  0  0  0  0
   11.7383    0.9174    0.0000 H   0  0  0  0  0  0  0  0  0  0  0  0
   12.1369    1.6077    0.0000 H   0  0  0  0  0  0  0  0  0  0  0  0
   11.3142    3.0826    0.0000 H   0  0  0  0  0  0  0  0  0  0  0  0
   10.9157    2.3923    0.0000 H   0  0  0  0  0  0  0  0  0  0  0  0
   10.4482    1.5826    0.0000 H   0  0  0  0  0  0  0  0  0  0  0  0
   10.0497    0.8923    0.0000 H   0  0  0  0  0  0  0  0  0  0  0  0
   12.6044    2.4174    0.0000 H   0  0  0  0  0  0  0  0  0  0  0  0
   13.0029    3.1077    0.0000 H   0  0  0  0  0  0  0  0  0  0  0  0
   10.8723   -0.5826    0.0000 H   0  0  0  0  0  0  0  0  0  0  0  0
   11.2708    0.1077    0.0000 H   0  0  0  0  0  0  0  0  0  0  0  0
   12.1803    4.5826    0.0000 H   0  0  0  0  0  0  0  0  0  0  0  0
   11.7817    3.8923    0.0000 H   0  0  0  0  0  0  0  0  0  0  0  0
    9.5822    0.0826    0.0000 H   0  0  0  0  0  0  0  0  0  0  0  0
    9.1836   -0.6077    0.0000 H   0  0  0  0  0  0  0  0  0  0  0  0
   13.4704    3.9174    0.0000 H   0  0  0  0  0  0  0  0  0  0  0  0
   13.8689    4.6077    0.0000 H   0  0  0  0  0  0  0  0  0  0  0  0
   10.0063   -2.0826    0.0000 H   0  0  0  0  0  0  0  0  0  0  0  0
   10.4048   -1.3923    0.0000 H   0  0  0  0  0  0  0  0  0  0  0  0
   13.7953    5.1900    0.0000 H   0  0  0  0  0  0  0  0  0  0  0  0
    8.7162   -1.4174    0.0000 H   0  0  0  0  0  0  0  0  0  0  0  0
    8.3176   -2.1077    0.0000 H   0  0  0  0  0  0  0  0  0  0  0  0
    9.1403   -3.5826    0.0000 H   0  0  0  0  0  0  0  0  0  0  0  0
    9.5388   -2.8923    0.0000 H   0  0  0  0  0  0  0  0  0  0  0  0
   18.0560    5.0250    0.0000 H   0  0  0  0  0  0  0  0  0  0  0  0
   18.8530    5.0250    0.0000 H   0  0  0  0  0  0  0  0  0  0  0  0
    7.6636    5.0250    0.0000 H   0  0  0  0  0  0  0  0  0  0  0  0
    8.4607    5.0250    0.0000 H   0  0  0  0  0  0  0  0  0  0  0  0
   17.9870    6.4750    0.0000 H   0  0  0  0  0  0  0  0  0  0  0  0
   17.1899    6.4750    0.0000 H   0  0  0  0  0  0  0  0  0  0  0  0
    9.3267    6.4750    0.0000 H   0  0  0  0  0  0  0  0  0  0  0  0
    8.5297    6.4750    0.0000 H   0  0  0  0  0  0  0  0  0  0  0  0
   16.3239    5.0250    0.0000 H   0  0  0  0  0  0  0  0  0  0  0  0
   17.1210    5.0250    0.0000 H   0  0  0  0  0  0  0  0  0  0  0  0
    9.3957    5.0250    0.0000 H   0  0  0  0  0  0  0  0  0  0  0  0
   10.1928    5.0250    0.0000 H   0  0  0  0  0  0  0  0  0  0  0  0
   19.7190    6.4750    0.0000 H   0  0  0  0  0  0  0  0  0  0  0  0
   18.9220    6.4750    0.0000 H   0  0  0  0  0  0  0  0  0  0  0  0
    7.5947    6.4750    0.0000 H   0  0  0  0  0  0  0  0  0  0  0  0
    6.7976    6.4750    0.0000 H   0  0  0  0  0  0  0  0  0  0  0  0
   16.2549    6.4750    0.0000 H   0  0  0  0  0  0  0  0  0  0  0  0
   15.4579    6.4750    0.0000 H   0  0  0  0  0  0  0  0  0  0  0  0
   11.0588    6.4750    0.0000 H   0  0  0  0  0  0  0  0  0  0  0  0
   10.2617    6.4750    0.0000 H   0  0  0  0  0  0  0  0  0  0  0  0
   19.7880    5.0250    0.0000 H   0  0  0  0  0  0  0  0  0  0  0  0
   20.5851    5.0250    0.0000 H   0  0  0  0  0  0  0  0  0  0  0  0
    5.9316    5.0250    0.0000 H   0  0  0  0  0  0  0  0  0  0  0  0
    6.7287    5.0250    0.0000 H   0  0  0  0  0  0  0  0  0  0  0  0
    7.8501   -2.9174    0.0000 H   0  0  0  0  0  0  0  0  0  0  0  0
    7.4516   -3.6077    0.0000 H   0  0  0  0  0  0  0  0  0  0  0  0
   14.5919    5.0250    0.0000 H   0  0  0  0  0  0  0  0  0  0  0  0
   15.3889    5.0250    0.0000 H   0  0  0  0  0  0  0  0  0  0  0  0
   11.1278    5.0250    0.0000 H   0  0  0  0  0  0  0  0  0  0  0  0
   11.9248    5.0250    0.0000 H   0  0  0  0  0  0  0  0  0  0  0  0
   21.4511    6.4750    0.0000 H   0  0  0  0  0  0  0  0  0  0  0  0
   20.6540    6.4750    0.0000 H   0  0  0  0  0  0  0  0  0  0  0  0
    5.8626    6.4750    0.0000 H   0  0  0  0  0  0  0  0  0  0  0  0
    5.0656    6.4750    0.0000 H   0  0  0  0  0  0  0  0  0  0  0  0
   21.5201    5.0250    0.0000 H   0  0  0  0  0  0  0  0  0  0  0  0
   22.3171    5.0250    0.0000 H   0  0  0  0  0  0  0  0  0  0  0  0
    4.1996    5.0250    0.0000 H   0  0  0  0  0  0  0  0  0  0  0  0
    4.9966    5.0250    0.0000 H   0  0  0  0  0  0  0  0  0  0  0  0
    8.2742   -5.0826    0.0000 H   0  0  0  0  0  0  0  0  0  0  0  0
    8.6728   -4.3923    0.0000 H   0  0  0  0  0  0  0  0  0  0  0  0
   23.1831    6.4750    0.0000 H   0  0  0  0  0  0  0  0  0  0  0  0
   22.3861    6.4750    0.0000 H   0  0  0  0  0  0  0  0  0  0  0  0
    4.1306    6.4750    0.0000 H   0  0  0  0  0  0  0  0  0  0  0  0
    3.3335    6.4750    0.0000 H   0  0  0  0  0  0  0  0  0  0  0  0
    6.9841   -4.4174    0.0000 H   0  0  0  0  0  0  0  0  0  0  0  0
    6.5856   -5.1077    0.0000 H   0  0  0  0  0  0  0  0  0  0  0  0
   23.2521    5.0250    0.0000 H   0  0  0  0  0  0  0  0  0  0  0  0
   24.0492    5.0250    0.0000 H   0  0  0  0  0  0  0  0  0  0  0  0
    2.4675    5.0250    0.0000 H   0  0  0  0  0  0  0  0  0  0  0  0
    3.2646    5.0250    0.0000 H   0  0  0  0  0  0  0  0  0  0  0  0
    6.5762   -6.0000    0.0000 H   0  0  0  0  0  0  0  0  0  0  0  0
    7.1962   -6.6200    0.0000 H   0  0  0  0  0  0  0  0  0  0  0  0
    7.8162   -6.0000    0.0000 H   0  0  0  0  0  0  0  0  0  0  0  0
   24.8267    5.4631    0.0000 H   0  0  0  0  0  0  0  0  0  0  0  0
   25.0536    6.3100    0.0000 H   0  0  0  0  0  0  0  0  0  0  0  0
   24.2067    6.5369    0.0000 H   0  0  0  0  0  0  0  0  0  0  0  0
    2.3100    6.5369    0.0000 H   0  0  0  0  0  0  0  0  0  0  0  0
    1.4631    6.3100    0.0000 H   0  0  0  0  0  0  0  0  0  0  0  0
    1.6900    5.4631    0.0000 H   0  0  0  0  0  0  0  0  0  0  0  0
  1 12  1  0  0  0  0
  1 28  1  0  0  0  0
  2 12  1  0  0  0  0
  2 29  1  0  0  0  0
  3  4  1  0  0  0  0
  3  5  1  0  0  0  0
  3 43  1  0  0  0  0
  3 44  1  0  0  0  0
  4  6  1  0  0  0  0
  4 45  1  0  0  0  0
  4 46  1  0  0  0  0
  5  7  1  0  0  0  0
  5 47  1  0  0  0  0
  5 48  1  0  0  0  0
  6  8  1  0  0  0  0
  6 49  1  0  0  0  0
  6 50  1  0  0  0  0
  7  9  1  0  0  0  0
  7 51  1  0  0  0  0
  7 52  1  0  0  0  0
  8 10  1  0  0  0  0
  8 53  1  0  0  0  0
  8 54  1  0  0  0  0
  9 11  1  0  0  0  0
  9 55  1  0  0  0  0
  9 56  1  0  0  0  0
 10 12  1  0  0  0  0
 10 57  1  0  0  0  0
 10 58  1  0  0  0  0
 11 13  1  0  0  0  0
 11 59  1  0  0  0  0
 11 60  1  0  0  0  0
 12 61  1  0  0  0  0
 13 14  1  0  0  0  0
 13 62  1  0  0  0  0
 13 63  1  0  0  0  0
 14 27  1  0  0  0  0
 14 64  1  0  0  0  0
 14 65  1  0  0  0  0
 15 17  1  0  0  0  0
 15 21  1  0  0  0  0
 15 66  1  0  0  0  0
 15 67  1  0  0  0  0
 16 18  1  0  0  0  0
 16 22  1  0  0  0  0
 16 68  1  0  0  0  0
 16 69  1  0  0  0  0
 17 19  1  0  0  0  0
 17 70  1  0  0  0  0
 17 71  1  0  0  0  0
 18 20  1  0  0  0  0
 18 72  1  0  0  0  0
 18 73  1  0  0  0  0
 19 23  1  0  0  0  0
 19 74  1  0  0  0  0
 19 75  1  0  0  0  0
 20 24  1  0  0  0  0
 20 76  1  0  0  0  0
 20 77  1  0  0  0  0
 21 25  1  0  0  0  0
 21 78  1  0  0  0  0
 21 79  1  0  0  0  0
 22 26  1  0  0  0  0
 22 80  1  0  0  0  0
 22 81  1  0  0  0  0
 23 28  1  0  0  0  0
 23 82  1  0  0  0  0
 23 83  1  0  0  0  0
 24 29  1  0  0  0  0
 24 84  1  0  0  0  0
 24 85  1  0  0  0  0
 25 30  1  0  0  0  0
 25 86  1  0  0  0  0
 25 87  1  0  0  0  0
 26 31  1  0  0  0  0
 26 88  1  0  0  0  0
 26 89  1  0  0  0  0
 27 34  1  0  0  0  0
 27 90  1  0  0  0  0
 27 91  1  0  0  0  0
 28 92  1  0  0  0  0
 28 93  1  0  0  0  0
 29 94  1  0  0  0  0
 29 95  1  0  0  0  0
 30 32  1  0  0  0  0
 30 96  1  0  0  0  0
 30 97  1  0  0  0  0
 31 33  1  0  0  0  0
 31 98  1  0  0  0  0
 31 99  1  0  0  0  0
 32 35  1  0  0  0  0
 32100  1  0  0  0  0
 32101  1  0  0  0  0
 33 36  1  0  0  0  0
 33102  1  0  0  0  0
 33103  1  0  0  0  0
 34 37  1  0  0  0  0
 34104  1  0  0  0  0
 34105  1  0  0  0  0
 35 38  1  0  0  0  0
 35106  1  0  0  0  0
 35107  1  0  0  0  0
 36 39  1  0  0  0  0
 36108  1  0  0  0  0
 36109  1  0  0  0  0
 37 40  1  0  0  0  0
 37110  1  0  0  0  0
 37111  1  0  0  0  0
 38 41  1  0  0  0  0
 38112  1  0  0  0  0
 38113  1  0  0  0  0
 39 42  1  0  0  0  0
 39114  1  0  0  0  0
 39115  1  0  0  0  0
 40116  1  0  0  0  0
 40117  1  0  0  0  0
 40118  1  0  0  0  0
 41119  1  0  0  0  0
 41120  1  0  0  0  0
 41121  1  0  0  0  0
 42122  1  0  0  0  0
 42123  1  0  0  0  0
 42124  1  0  0  0  0
M  END
> <PUBCHEM_COMPOUND_CID>
41920

> <PUBCHEM_COMPOUND_CANONICALIZED>
1

> <PUBCHEM_CACTVS_COMPLEXITY>
425

> <PUBCHEM_CACTVS_HBOND_ACCEPTOR>
2

> <PUBCHEM_CACTVS_HBOND_DONOR>
0

> <PUBCHEM_CACTVS_ROTATABLE_BOND>
38

> <PUBCHEM_CACTVS_SUBSKEYS>
AAADcfB8MAAAAAAAAAAAAAAAAAAAAAAAAAAAAAAAAAAAAAAAAAAAGgAAAAAACACwgAMCCAAABAAAAAAAAAAAAAAAAAAAAAAAAAAQAAIAAAAiAAAEAAAEAAGAwKAAAAAAAAAAAAAAAAAAAAAAAAAAAAAAAA==

> <PUBCHEM_IUPAC_OPENEYE_NAME>
1,1-didodecoxyhexadecane

> <PUBCHEM_IUPAC_CAS_NAME>
1,1-didodecoxyhexadecane

> <PUBCHEM_IUPAC_NAME_MARKUP>
1,1-didodecoxyhexadecane

> <PUBCHEM_IUPAC_NAME>
1,1-didodecoxyhexadecane

> <PUBCHEM_IUPAC_SYSTEMATIC_NAME>
1,1-didodecoxyhexadecane

> <PUBCHEM_IUPAC_TRADITIONAL_NAME>
1,1-dilauryloxyhexadecane

> <PUBCHEM_IUPAC_INCHI>
InChI=1S/C40H82O2/c1-4-7-10-13-16-19-22-23-24-25-28-31-34-37-40(41-38-35-32-29-26-20-17-14-11-8-5-2)42-39-36-33-30-27-21-18-15-12-9-6-3/h40H,4-39H2,1-3H3

> <PUBCHEM_IUPAC_INCHIKEY>
IQWYYPSAYLKEME-UHFFFAOYSA-N

> <PUBCHEM_XLOGP3_AA>
19

> <PUBCHEM_EXACT_MASS>
594.631482

> <PUBCHEM_MOLECULAR_FORMULA>
C40H82O2

> <PUBCHEM_MOLECULAR_WEIGHT>
595.1

> <PUBCHEM_OPENEYE_CAN_SMILES>
CCCCCCCCCCCCCCCC(OCCCCCCCCCCCC)OCCCCCCCCCCCC

> <PUBCHEM_OPENEYE_ISO_SMILES>
CCCCCCCCCCCCCCCC(OCCCCCCCCCCCC)OCCCCCCCCCCCC

> <PUBCHEM_CACTVS_TPSA>
18.5

> <PUBCHEM_MONOISOTOPIC_WEIGHT>
594.631482

> <PUBCHEM_TOTAL_CHARGE>
0

> <PUBCHEM_HEAVY_ATOM_COUNT>
42

> <PUBCHEM_ATOM_DEF_STEREO_COUNT>
0

> <PUBCHEM_ATOM_UDEF_STEREO_COUNT>
0

> <PUBCHEM_BOND_DEF_STEREO_COUNT>
0

> <PUBCHEM_BOND_UDEF_STEREO_COUNT>
0

> <PUBCHEM_ISOTOPIC_ATOM_COUNT>
0

> <PUBCHEM_COMPONENT_COUNT>
1

> <PUBCHEM_CACTVS_TAUTO_COUNT>
-1

> <PUBCHEM_COORDINATE_TYPE>
1
5
255

$$$$
