171596
  -OEChem-09062003202D

144151  0     1  0  0  0  0  0999 V2000
   21.8779    2.5000    0.0000 O   0  0  0  0  0  0  0  0  0  0  0  0
   20.0774    4.2918    0.0000 O   0  0  0  0  0  0  0  0  0  0  0  0
   12.9292   -0.5176    0.0000 O   0  0  0  0  0  0  0  0  0  0  0  0
   13.7953    0.9824    0.0000 O   0  0  0  0  0  0  0  0  0  0  0  0
   11.1972   -0.5176    0.0000 O   0  0  0  0  0  0  0  0  0  0  0  0
   12.9292    1.4824    0.0000 O   0  0  0  0  0  0  0  0  0  0  0  0
   11.1972    2.4824    0.0000 O   0  0  0  0  0  0  0  0  0  0  0  0
    9.4651    1.4824    0.0000 O   0  0  0  0  0  0  0  0  0  0  0  0
    9.4651   -1.5176    0.0000 O   0  0  0  0  0  0  0  0  0  0  0  0
    7.7331   -1.5176    0.0000 O   0  0  0  0  0  0  0  0  0  0  0  0
    9.4651   -3.5176    0.0000 O   0  0  0  0  0  0  0  0  0  0  0  0
    6.0010   -3.5176    0.0000 O   0  0  0  0  0  0  0  0  0  0  0  0
    7.7331   -4.5176    0.0000 O   0  0  0  0  0  0  0  0  0  0  0  0
    6.0010   -0.5176    0.0000 O   0  0  0  0  0  0  0  0  0  0  0  0
    5.1350   -2.0176    0.0000 O   0  0  0  0  0  0  0  0  0  0  0  0
    4.2690   -4.5176    0.0000 O   0  0  0  0  0  0  0  0  0  0  0  0
    2.5369   -3.5176    0.0000 O   0  0  0  0  0  0  0  0  0  0  0  0
    2.5369   -1.5176    0.0000 O   0  0  0  0  0  0  0  0  0  0  0  0
   17.3390    0.9826    0.0000 C   0  0  2  0  0  0  0  0  0  0  0  0
   18.2011    0.4760    0.0000 C   0  0  1  0  0  0  0  0  0  0  0  0
   19.1150    0.9758    0.0000 C   0  0  2  0  0  0  0  0  0  0  0  0
   16.4691    0.4893    0.0000 C   0  0  1  0  0  0  0  0  0  0  0  0
   19.1311    2.0173    0.0000 C   0  0  1  0  0  0  0  0  0  0  0  0
   17.3309    2.0242    0.0000 C   0  0  0  0  0  0  0  0  0  0  0  0
   18.2330    2.5451    0.0000 C   0  0  0  0  0  0  0  0  0  0  0  0
   20.0707    2.5598    0.0000 C   0  0  1  0  0  0  0  0  0  0  0  0
   16.4614   -0.5106    0.0000 C   0  0  0  0  0  0  0  0  0  0  0  0
   15.5634   -1.0384    0.0000 C   0  0  1  0  0  0  0  0  0  0  0  0
   18.1934   -0.5240    0.0000 C   0  0  0  0  0  0  0  0  0  0  0  0
   20.0375    0.4046    0.0000 C   0  0  0  0  0  0  0  0  0  0  0  0
   15.5793    1.0309    0.0000 C   0  0  0  0  0  0  0  0  0  0  0  0
   14.6613   -0.5176    0.0000 C   0  0  1  0  0  0  0  0  0  0  0  0
   16.7021    1.7536    0.0000 C   0  0  0  0  0  0  0  0  0  0  0  0
   14.6693    0.5240    0.0000 C   0  0  0  0  0  0  0  0  0  0  0  0
   21.0061    2.0101    0.0000 C   0  0  2  0  0  0  0  0  0  0  0  0
   19.0996   -0.0241    0.0000 C   0  0  0  0  0  0  0  0  0  0  0  0
   17.3236   -1.0173    0.0000 C   0  0  0  0  0  0  0  0  0  0  0  0
   20.9894    0.9252    0.0000 C   0  0  0  0  0  0  0  0  0  0  0  0
   16.1343    1.4316    0.0000 C   0  0  0  0  0  0  0  0  0  0  0  0
   15.5801   -2.1233    0.0000 C   0  0  0  0  0  0  0  0  0  0  0  0
   13.7134   -1.0455    0.0000 C   0  0  0  0  0  0  0  0  0  0  0  0
   14.6447   -2.6730    0.0000 C   0  0  0  0  0  0  0  0  0  0  0  0
   20.5740    3.4239    0.0000 C   0  0  0  0  0  0  0  0  0  0  0  0
   19.5740    3.4278    0.0000 C   0  0  0  0  0  0  0  0  0  0  0  0
   13.7050   -2.1305    0.0000 C   0  0  0  0  0  0  0  0  0  0  0  0
   13.7953   -0.0176    0.0000 C   0  0  0  0  0  0  0  0  0  0  0  0
   15.1480   -3.5371    0.0000 C   0  0  0  0  0  0  0  0  0  0  0  0
   14.1480   -3.5409    0.0000 C   0  0  0  0  0  0  0  0  0  0  0  0
   12.0632   -0.0176    0.0000 C   0  0  2  0  0  0  0  0  0  0  0  0
   12.0632    0.9824    0.0000 C   0  0  1  0  0  0  0  0  0  0  0  0
   11.1972    1.4824    0.0000 C   0  0  2  0  0  0  0  0  0  0  0  0
   10.3312   -0.0176    0.0000 C   0  0  1  0  0  0  0  0  0  0  0  0
   10.3312    0.9824    0.0000 C   0  0  1  0  0  0  0  0  0  0  0  0
    9.4651   -0.5176    0.0000 C   0  0  0  0  0  0  0  0  0  0  0  0
    8.5991   -2.0176    0.0000 C   0  0  2  0  0  0  0  0  0  0  0  0
    8.5991   -3.0176    0.0000 C   0  0  1  0  0  0  0  0  0  0  0  0
    7.7331   -3.5176    0.0000 C   0  0  2  0  0  0  0  0  0  0  0  0
    6.8671   -2.0176    0.0000 C   0  0  1  0  0  0  0  0  0  0  0  0
    6.8671   -3.0176    0.0000 C   0  0  1  0  0  0  0  0  0  0  0  0
    6.0010   -1.5176    0.0000 C   0  0  0  0  0  0  0  0  0  0  0  0
    5.1350   -3.0176    0.0000 C   0  0  2  0  0  0  0  0  0  0  0  0
    4.2690   -3.5176    0.0000 C   0  0  1  0  0  0  0  0  0  0  0  0
    3.4030   -3.0176    0.0000 C   0  0  1  0  0  0  0  0  0  0  0  0
    4.2690   -1.5176    0.0000 C   0  0  2  0  0  0  0  0  0  0  0  0
    3.4030   -2.0176    0.0000 C   0  0  2  0  0  0  0  0  0  0  0  0
    4.2690   -0.5176    0.0000 C   0  0  0  0  0  0  0  0  0  0  0  0
   18.9306    0.0397    0.0000 H   0  0  0  0  0  0  0  0  0  0  0  0
   19.1343    2.8673    0.0000 H   0  0  0  0  0  0  0  0  0  0  0  0
   17.1174    2.6063    0.0000 H   0  0  0  0  0  0  0  0  0  0  0  0
   16.7209    1.9134    0.0000 H   0  0  0  0  0  0  0  0  0  0  0  0
   18.6340    3.0180    0.0000 H   0  0  0  0  0  0  0  0  0  0  0  0
   17.8357    3.0210    0.0000 H   0  0  0  0  0  0  0  0  0  0  0  0
   16.3044   -1.4548    0.0000 H   0  0  0  0  0  0  0  0  0  0  0  0
   18.4010   -1.1082    0.0000 H   0  0  0  0  0  0  0  0  0  0  0  0
   18.8048   -0.4210    0.0000 H   0  0  0  0  0  0  0  0  0  0  0  0
   19.6257   -0.0589    0.0000 H   0  0  0  0  0  0  0  0  0  0  0  0
   20.4237   -0.0804    0.0000 H   0  0  0  0  0  0  0  0  0  0  0  0
   15.9875    1.4975    0.0000 H   0  0  0  0  0  0  0  0  0  0  0  0
   15.1894    1.5129    0.0000 H   0  0  0  0  0  0  0  0  0  0  0  0
   17.1801    2.1485    0.0000 H   0  0  0  0  0  0  0  0  0  0  0  0
   16.3073    2.2316    0.0000 H   0  0  0  0  0  0  0  0  0  0  0  0
   16.2241    1.3588    0.0000 H   0  0  0  0  0  0  0  0  0  0  0  0
   14.4648    1.1093    0.0000 H   0  0  0  0  0  0  0  0  0  0  0  0
   14.0577    0.4226    0.0000 H   0  0  0  0  0  0  0  0  0  0  0  0
   21.5388    1.6929    0.0000 H   0  0  0  0  0  0  0  0  0  0  0  0
   18.4797   -0.0145    0.0000 H   0  0  0  0  0  0  0  0  0  0  0  0
   19.0900   -0.6440    0.0000 H   0  0  0  0  0  0  0  0  0  0  0  0
   19.7195   -0.0336    0.0000 H   0  0  0  0  0  0  0  0  0  0  0  0
   17.3188   -1.6373    0.0000 H   0  0  0  0  0  0  0  0  0  0  0  0
   21.1894    0.3384    0.0000 H   0  0  0  0  0  0  0  0  0  0  0  0
   21.6018    1.0219    0.0000 H   0  0  0  0  0  0  0  0  0  0  0  0
   16.7186    1.6392    0.0000 H   0  0  0  0  0  0  0  0  0  0  0  0
   15.9268    2.0159    0.0000 H   0  0  0  0  0  0  0  0  0  0  0  0
   15.5501    1.2241    0.0000 H   0  0  0  0  0  0  0  0  0  0  0  0
   15.7981   -2.7037    0.0000 H   0  0  0  0  0  0  0  0  0  0  0  0
   16.1892   -2.0078    0.0000 H   0  0  0  0  0  0  0  0  0  0  0  0
   13.5089   -0.4602    0.0000 H   0  0  0  0  0  0  0  0  0  0  0  0
   13.1018   -1.1469    0.0000 H   0  0  0  0  0  0  0  0  0  0  0  0
   21.0474    3.0235    0.0000 H   0  0  0  0  0  0  0  0  0  0  0  0
   21.0505    3.8206    0.0000 H   0  0  0  0  0  0  0  0  0  0  0  0
   20.1122    3.7357    0.0000 H   0  0  0  0  0  0  0  0  0  0  0  0
   19.2661    3.9659    0.0000 H   0  0  0  0  0  0  0  0  0  0  0  0
   19.0359    3.1198    0.0000 H   0  0  0  0  0  0  0  0  0  0  0  0
   13.0950   -2.0197    0.0000 H   0  0  0  0  0  0  0  0  0  0  0  0
   13.4915   -2.7125    0.0000 H   0  0  0  0  0  0  0  0  0  0  0  0
   22.4112    2.1838    0.0000 H   0  0  0  0  0  0  0  0  0  0  0  0
   14.6123   -3.8491    0.0000 H   0  0  0  0  0  0  0  0  0  0  0  0
   15.4601   -4.0728    0.0000 H   0  0  0  0  0  0  0  0  0  0  0  0
   15.6837   -3.2250    0.0000 H   0  0  0  0  0  0  0  0  0  0  0  0
   13.6099   -3.2330    0.0000 H   0  0  0  0  0  0  0  0  0  0  0  0
   13.8401   -4.0790    0.0000 H   0  0  0  0  0  0  0  0  0  0  0  0
   14.6861   -3.8489    0.0000 H   0  0  0  0  0  0  0  0  0  0  0  0
   20.3894    4.8276    0.0000 H   0  0  0  0  0  0  0  0  0  0  0  0
   12.6002    0.2924    0.0000 H   0  0  0  0  0  0  0  0  0  0  0  0
   12.0632    1.6024    0.0000 H   0  0  0  0  0  0  0  0  0  0  0  0
   10.6603    1.7924    0.0000 H   0  0  0  0  0  0  0  0  0  0  0  0
   10.3312   -0.6376    0.0000 H   0  0  0  0  0  0  0  0  0  0  0  0
    9.7942    0.6724    0.0000 H   0  0  0  0  0  0  0  0  0  0  0  0
   12.9292    2.1024    0.0000 H   0  0  0  0  0  0  0  0  0  0  0  0
    9.2531    0.0650    0.0000 H   0  0  0  0  0  0  0  0  0  0  0  0
    8.8546   -0.6252    0.0000 H   0  0  0  0  0  0  0  0  0  0  0  0
   11.7341    2.7924    0.0000 H   0  0  0  0  0  0  0  0  0  0  0  0
    9.4651    2.1024    0.0000 H   0  0  0  0  0  0  0  0  0  0  0  0
    8.5991   -1.3976    0.0000 H   0  0  0  0  0  0  0  0  0  0  0  0
    8.5991   -3.6376    0.0000 H   0  0  0  0  0  0  0  0  0  0  0  0
    7.1962   -3.8276    0.0000 H   0  0  0  0  0  0  0  0  0  0  0  0
    6.8671   -1.3976    0.0000 H   0  0  0  0  0  0  0  0  0  0  0  0
    6.3301   -2.7076    0.0000 H   0  0  0  0  0  0  0  0  0  0  0  0
   10.0021   -3.2076    0.0000 H   0  0  0  0  0  0  0  0  0  0  0  0
    5.3905   -1.4099    0.0000 H   0  0  0  0  0  0  0  0  0  0  0  0
    5.7890   -2.1002    0.0000 H   0  0  0  0  0  0  0  0  0  0  0  0
    8.2700   -4.8276    0.0000 H   0  0  0  0  0  0  0  0  0  0  0  0
    5.1350   -3.6376    0.0000 H   0  0  0  0  0  0  0  0  0  0  0  0
    3.7320   -3.8276    0.0000 H   0  0  0  0  0  0  0  0  0  0  0  0
    2.8660   -2.7076    0.0000 H   0  0  0  0  0  0  0  0  0  0  0  0
    6.5380   -0.2076    0.0000 H   0  0  0  0  0  0  0  0  0  0  0  0
    4.8059   -1.2076    0.0000 H   0  0  0  0  0  0  0  0  0  0  0  0
    3.4030   -1.3976    0.0000 H   0  0  0  0  0  0  0  0  0  0  0  0
    4.8890   -0.5176    0.0000 H   0  0  0  0  0  0  0  0  0  0  0  0
    4.2690    0.1024    0.0000 H   0  0  0  0  0  0  0  0  0  0  0  0
    3.6490   -0.5176    0.0000 H   0  0  0  0  0  0  0  0  0  0  0  0
    3.7320   -4.8276    0.0000 H   0  0  0  0  0  0  0  0  0  0  0  0
    2.0000   -3.2076    0.0000 H   0  0  0  0  0  0  0  0  0  0  0  0
    2.5369   -0.8976    0.0000 H   0  0  0  0  0  0  0  0  0  0  0  0
 35  1  1  1  0  0  0
  1106  1  0  0  0  0
  2 43  1  0  0  0  0
  2113  1  0  0  0  0
  3 46  1  0  0  0  0
 49  3  1  6  0  0  0
  4 46  2  0  0  0  0
  5 49  1  0  0  0  0
  5 52  1  0  0  0  0
 50  6  1  1  0  0  0
  6119  1  0  0  0  0
 51  7  1  6  0  0  0
  7122  1  0  0  0  0
 53  8  1  1  0  0  0
  8123  1  0  0  0  0
  9 54  1  0  0  0  0
 55  9  1  1  0  0  0
 10 55  1  0  0  0  0
 10 58  1  0  0  0  0
 56 11  1  6  0  0  0
 11129  1  0  0  0  0
 59 12  1  6  0  0  0
 61 12  1  1  0  0  0
 57 13  1  1  0  0  0
 13132  1  0  0  0  0
 14 60  1  0  0  0  0
 14136  1  0  0  0  0
 15 61  1  0  0  0  0
 15 64  1  0  0  0  0
 62 16  1  6  0  0  0
 16142  1  0  0  0  0
 63 17  1  6  0  0  0
 17143  1  0  0  0  0
 65 18  1  1  0  0  0
 18144  1  0  0  0  0
 19 20  1  0  0  0  0
 19 22  1  0  0  0  0
 19 24  1  0  0  0  0
 19 33  1  1  0  0  0
 20 21  1  0  0  0  0
 20 29  1  0  0  0  0
 20 67  1  6  0  0  0
 21 23  1  0  0  0  0
 21 30  1  0  0  0  0
 21 36  1  1  0  0  0
 22 27  1  0  0  0  0
 22 31  1  0  0  0  0
 22 39  1  6  0  0  0
 23 25  1  0  0  0  0
 23 26  1  0  0  0  0
 23 68  1  6  0  0  0
 24 25  1  0  0  0  0
 24 69  1  0  0  0  0
 24 70  1  0  0  0  0
 25 71  1  0  0  0  0
 25 72  1  0  0  0  0
 26 35  1  0  0  0  0
 26 43  1  0  0  0  0
 26 44  1  1  0  0  0
 27 28  1  0  0  0  0
 27 37  2  0  0  0  0
 28 32  1  0  0  0  0
 28 40  1  0  0  0  0
 28 73  1  1  0  0  0
 29 37  1  0  0  0  0
 29 74  1  0  0  0  0
 29 75  1  0  0  0  0
 30 38  1  0  0  0  0
 30 76  1  0  0  0  0
 30 77  1  0  0  0  0
 31 34  1  0  0  0  0
 31 78  1  0  0  0  0
 31 79  1  0  0  0  0
 32 34  1  0  0  0  0
 32 41  1  0  0  0  0
 32 46  1  1  0  0  0
 33 80  1  0  0  0  0
 33 81  1  0  0  0  0
 33 82  1  0  0  0  0
 34 83  1  0  0  0  0
 34 84  1  0  0  0  0
 35 38  1  0  0  0  0
 35 85  1  0  0  0  0
 36 86  1  0  0  0  0
 36 87  1  0  0  0  0
 36 88  1  0  0  0  0
 37 89  1  0  0  0  0
 38 90  1  0  0  0  0
 38 91  1  0  0  0  0
 39 92  1  0  0  0  0
 39 93  1  0  0  0  0
 39 94  1  0  0  0  0
 40 42  1  0  0  0  0
 40 95  1  0  0  0  0
 40 96  1  0  0  0  0
 41 45  1  0  0  0  0
 41 97  1  0  0  0  0
 41 98  1  0  0  0  0
 42 45  1  0  0  0  0
 42 47  1  0  0  0  0
 42 48  1  0  0  0  0
 43 99  1  0  0  0  0
 43100  1  0  0  0  0
 44101  1  0  0  0  0
 44102  1  0  0  0  0
 44103  1  0  0  0  0
 45104  1  0  0  0  0
 45105  1  0  0  0  0
 47107  1  0  0  0  0
 47108  1  0  0  0  0
 47109  1  0  0  0  0
 48110  1  0  0  0  0
 48111  1  0  0  0  0
 48112  1  0  0  0  0
 49 50  1  0  0  0  0
 49114  1  0  0  0  0
 50 51  1  0  0  0  0
 50115  1  0  0  0  0
 51 53  1  0  0  0  0
 51116  1  0  0  0  0
 52 53  1  0  0  0  0
 52 54  1  6  0  0  0
 52117  1  0  0  0  0
 53118  1  0  0  0  0
 54120  1  0  0  0  0
 54121  1  0  0  0  0
 55 56  1  0  0  0  0
 55124  1  0  0  0  0
 56 57  1  0  0  0  0
 56125  1  0  0  0  0
 57 59  1  0  0  0  0
 57126  1  0  0  0  0
 58 59  1  0  0  0  0
 58 60  1  1  0  0  0
 58127  1  0  0  0  0
 59128  1  0  0  0  0
 60130  1  0  0  0  0
 60131  1  0  0  0  0
 61 62  1  0  0  0  0
 61133  1  0  0  0  0
 62 63  1  0  0  0  0
 62134  1  0  0  0  0
 63 65  1  0  0  0  0
 63135  1  0  0  0  0
 64 65  1  0  0  0  0
 64 66  1  6  0  0  0
 64137  1  0  0  0  0
 65138  1  0  0  0  0
 66139  1  0  0  0  0
 66140  1  0  0  0  0
 66141  1  0  0  0  0
M  END
> <PUBCHEM_COMPOUND_CID>
171596

> <PUBCHEM_COMPOUND_CANONICALIZED>
1

> <PUBCHEM_CACTVS_COMPLEXITY>
1800

> <PUBCHEM_CACTVS_HBOND_ACCEPTOR>
18

> <PUBCHEM_CACTVS_HBOND_DONOR>
11

> <PUBCHEM_CACTVS_ROTATABLE_BOND>
10

> <PUBCHEM_CACTVS_SUBSKEYS>
AAADcfB8PgAAAAAAAAAAAAAAAAAAAAAAAAA0aNGCAAAAAADAAAAAGgAACAAADxSwgAMCCAAABgCIAiDSCAAAAAAgAAAACAEAAAgREBIAAQAiQAAFgAAPAAPI6PyPgAAAAAAAAADAAAYAADAAAAAAAAAAAA==

> <PUBCHEM_IUPAC_OPENEYE_NAME>
[(2S,3R,4S,5S,6R)-6-[[(2R,3R,4R,5S,6R)-3,4-dihydroxy-6-(hydroxymethyl)-5-[(2S,3R,4R,5R,6S)-3,4,5-trihydroxy-6-methyl-tetrahydropyran-2-yl]oxy-tetrahydropyran-2-yl]oxymethyl]-3,4,5-trihydroxy-tetrahydropyran-2-yl] (4aS,6aR,6aS,6bR,8aR,9R,10S,12aR,14bS)-10-hydroxy-9-(hydroxymethyl)-2,2,6a,6b,9,12a-hexamethyl-1,3,4,5,6,6a,7,8,8a,10,11,12,13,14b-tetradecahydropicene-4a-carboxylate

> <PUBCHEM_IUPAC_CAS_NAME>
(4aS,6aR,6aS,6bR,8aR,9R,10S,12aR,14bS)-10-hydroxy-9-(hydroxymethyl)-2,2,6a,6b,9,12a-hexamethyl-1,3,4,5,6,6a,7,8,8a,10,11,12,13,14b-tetradecahydropicene-4a-carboxylic acid [(2S,3R,4S,5S,6R)-6-[[(2R,3R,4R,5S,6R)-3,4-dihydroxy-6-(hydroxymethyl)-5-[[(2S,3R,4R,5R,6S)-3,4,5-trihydroxy-6-methyl-2-oxanyl]oxy]-2-oxanyl]oxymethyl]-3,4,5-trihydroxy-2-oxanyl] ester

> <PUBCHEM_IUPAC_NAME_MARKUP>
[(2<I>S</I>,3<I>R</I>,4<I>S</I>,5<I>S</I>,6<I>R</I>)-6-[[(2<I>R</I>,3<I>R</I>,4<I>R</I>,5<I>S</I>,6<I>R</I>)-3,4-dihydroxy-6-(hydroxymethyl)-5-[(2<I>S</I>,3<I>R</I>,4<I>R</I>,5<I>R</I>,6<I>S</I>)-3,4,5-trihydroxy-6-methyloxan-2-yl]oxyoxan-2-yl]oxymethyl]-3,4,5-trihydroxyoxan-2-yl] (4<I>a</I><I>S</I>,6<I>a</I><I>R</I>,6<I>a</I><I>S</I>,6<I>b</I><I>R</I>,8<I>a</I><I>R</I>,9<I>R</I>,10<I>S</I>,12<I>a</I><I>R</I>,14<I>b</I><I>S</I>)-10-hydroxy-9-(hydroxymethyl)-2,2,6<I>a</I>,6<I>b</I>,9,12<I>a</I>-hexamethyl-1,3,4,5,6,6<I>a</I>,7,8,8<I>a</I>,10,11,12,13,14<I>b</I>-tetradecahydropicene-4<I>a</I>-carboxylate

> <PUBCHEM_IUPAC_NAME>
[(2S,3R,4S,5S,6R)-6-[[(2R,3R,4R,5S,6R)-3,4-dihydroxy-6-(hydroxymethyl)-5-[(2S,3R,4R,5R,6S)-3,4,5-trihydroxy-6-methyloxan-2-yl]oxyoxan-2-yl]oxymethyl]-3,4,5-trihydroxyoxan-2-yl] (4aS,6aR,6aS,6bR,8aR,9R,10S,12aR,14bS)-10-hydroxy-9-(hydroxymethyl)-2,2,6a,6b,9,12a-hexamethyl-1,3,4,5,6,6a,7,8,8a,10,11,12,13,14b-tetradecahydropicene-4a-carboxylate

> <PUBCHEM_IUPAC_SYSTEMATIC_NAME>
[(2S,3R,4S,5S,6R)-6-[[(2R,3R,4R,5S,6R)-6-(hydroxymethyl)-5-[(2S,3R,4R,5R,6S)-6-methyl-3,4,5-tris(oxidanyl)oxan-2-yl]oxy-3,4-bis(oxidanyl)oxan-2-yl]oxymethyl]-3,4,5-tris(oxidanyl)oxan-2-yl] (4aS,6aR,6aS,6bR,8aR,9R,10S,12aR,14bS)-9-(hydroxymethyl)-2,2,6a,6b,9,12a-hexamethyl-10-oxidanyl-1,3,4,5,6,6a,7,8,8a,10,11,12,13,14b-tetradecahydropicene-4a-carboxylate

> <PUBCHEM_IUPAC_TRADITIONAL_NAME>
(4aS,6aR,6aS,6bR,8aR,9R,10S,12aR,14bS)-10-hydroxy-2,2,6a,6b,9,12a-hexamethyl-9-methylol-1,3,4,5,6,6a,7,8,8a,10,11,12,13,14b-tetradecahydropicene-4a-carboxylic acid [(2S,3R,4S,5S,6R)-6-[[(2R,3R,4R,5S,6R)-3,4-dihydroxy-6-methylol-5-[(2S,3R,4R,5R,6S)-3,4,5-trihydroxy-6-methyl-tetrahydropyran-2-yl]oxy-tetrahydropyran-2-yl]oxymethyl]-3,4,5-trihydroxy-tetrahydropyran-2-yl] ester

> <PUBCHEM_IUPAC_INCHI>
InChI=1S/C48H78O18/c1-22-30(52)32(54)35(57)40(62-22)65-38-25(19-49)63-39(37(59)34(38)56)61-20-26-31(53)33(55)36(58)41(64-26)66-42(60)48-16-14-43(2,3)18-24(48)23-8-9-28-44(4)12-11-29(51)45(5,21-50)27(44)10-13-47(28,7)46(23,6)15-17-48/h8,22,24-41,49-59H,9-21H2,1-7H3/t22-,24-,25+,26+,27+,28+,29-,30-,31+,32+,33-,34+,35+,36+,37+,38+,39+,40-,41-,44-,45-,46+,47+,48-/m0/s1

> <PUBCHEM_IUPAC_INCHIKEY>
YGSBJLPWANWGED-HYXYOFMCSA-N

> <PUBCHEM_XLOGP3_AA>
1.2

> <PUBCHEM_EXACT_MASS>
942.518816

> <PUBCHEM_MOLECULAR_FORMULA>
C48H78O18

> <PUBCHEM_MOLECULAR_WEIGHT>
943.1

> <PUBCHEM_OPENEYE_CAN_SMILES>
CC1C(C(C(C(O1)OC2C(OC(C(C2O)O)OCC3C(C(C(C(O3)OC(=O)C45CCC(CC4C6=CCC7C8(CCC(C(C8CCC7(C6(CC5)C)C)(C)CO)O)C)(C)C)O)O)O)CO)O)O)O

> <PUBCHEM_OPENEYE_ISO_SMILES>
C[C@H]1[C@@H]([C@H]([C@H]([C@@H](O1)O[C@@H]2[C@H](O[C@H]([C@@H]([C@H]2O)O)OC[C@@H]3[C@H]([C@@H]([C@H]([C@@H](O3)OC(=O)[C@@]45CC[C@@]6(C(=CC[C@H]7[C@]6(CC[C@@H]8[C@@]7(CC[C@@H]([C@@]8(C)CO)O)C)C)[C@@H]4CC(CC5)(C)C)C)O)O)O)CO)O)O)O

> <PUBCHEM_CACTVS_TPSA>
295

> <PUBCHEM_MONOISOTOPIC_WEIGHT>
942.518816

> <PUBCHEM_TOTAL_CHARGE>
0

> <PUBCHEM_HEAVY_ATOM_COUNT>
66

> <PUBCHEM_ATOM_DEF_STEREO_COUNT>
24

> <PUBCHEM_ATOM_UDEF_STEREO_COUNT>
0

> <PUBCHEM_BOND_DEF_STEREO_COUNT>
0

> <PUBCHEM_BOND_UDEF_STEREO_COUNT>
0

> <PUBCHEM_ISOTOPIC_ATOM_COUNT>
0

> <PUBCHEM_COMPONENT_COUNT>
1

> <PUBCHEM_CACTVS_TAUTO_COUNT>
-1

> <PUBCHEM_COORDINATE_TYPE>
1
5
255

> <PUBCHEM_BONDANNOTATIONS>
35  1  5
56  11  6
59  12  6
61  12  5
57  13  5
62  16  6
63  17  6
65  18  5
19  33  5
20  67  6
21  36  5
22  39  6
23  68  6
26  44  5
28  73  5
49  3  6
32  46  5
52  54  6
58  60  5
50  6  5
64  66  6
51  7  6
53  8  5
55  9  5

$$$$
