21630094
  -OEChem-09062003192D

161169  0     1  0  0  0  0  0999 V2000
   21.8779    2.5000    0.0000 O   0  0  0  0  0  0  0  0  0  0  0  0
   20.0774    4.2918    0.0000 O   0  0  0  0  0  0  0  0  0  0  0  0
   12.9292   -0.5176    0.0000 O   0  0  0  0  0  0  0  0  0  0  0  0
   13.7953    0.9824    0.0000 O   0  0  0  0  0  0  0  0  0  0  0  0
   23.6098    2.4800    0.0000 O   0  0  0  0  0  0  0  0  0  0  0  0
   11.1972   -0.5176    0.0000 O   0  0  0  0  0  0  0  0  0  0  0  0
   21.8547    0.5002    0.0000 O   0  0  0  0  0  0  0  0  0  0  0  0
   23.5751   -0.5198    0.0000 O   0  0  0  0  0  0  0  0  0  0  0  0
   12.9292    1.4824    0.0000 O   0  0  0  0  0  0  0  0  0  0  0  0
   25.3186    0.4601    0.0000 O   0  0  0  0  0  0  0  0  0  0  0  0
   11.1972    2.4824    0.0000 O   0  0  0  0  0  0  0  0  0  0  0  0
    9.4651    1.4824    0.0000 O   0  0  0  0  0  0  0  0  0  0  0  0
    9.4651   -1.5176    0.0000 O   0  0  0  0  0  0  0  0  0  0  0  0
    7.7331   -1.5176    0.0000 O   0  0  0  0  0  0  0  0  0  0  0  0
    9.4651   -3.5176    0.0000 O   0  0  0  0  0  0  0  0  0  0  0  0
    7.7331   -4.5176    0.0000 O   0  0  0  0  0  0  0  0  0  0  0  0
    6.0010   -3.5176    0.0000 O   0  0  0  0  0  0  0  0  0  0  0  0
    6.0010   -0.5176    0.0000 O   0  0  0  0  0  0  0  0  0  0  0  0
    5.1350   -2.0176    0.0000 O   0  0  0  0  0  0  0  0  0  0  0  0
    4.2690   -4.5176    0.0000 O   0  0  0  0  0  0  0  0  0  0  0  0
    2.5369   -3.5176    0.0000 O   0  0  0  0  0  0  0  0  0  0  0  0
    2.5369   -1.5176    0.0000 O   0  0  0  0  0  0  0  0  0  0  0  0
   17.3390    0.9826    0.0000 C   0  0  2  0  0  0  0  0  0  0  0  0
   18.2011    0.4760    0.0000 C   0  0  1  0  0  0  0  0  0  0  0  0
   19.1150    0.9758    0.0000 C   0  0  2  0  0  0  0  0  0  0  0  0
   16.4691    0.4893    0.0000 C   0  0  1  0  0  0  0  0  0  0  0  0
   19.1311    2.0173    0.0000 C   0  0  2  0  0  0  0  0  0  0  0  0
   17.3309    2.0242    0.0000 C   0  0  0  0  0  0  0  0  0  0  0  0
   20.0707    2.5598    0.0000 C   0  0  1  0  0  0  0  0  0  0  0  0
   18.2330    2.5451    0.0000 C   0  0  0  0  0  0  0  0  0  0  0  0
   16.4614   -0.5106    0.0000 C   0  0  0  0  0  0  0  0  0  0  0  0
   20.0375    0.4046    0.0000 C   0  0  0  0  0  0  0  0  0  0  0  0
   18.1934   -0.5240    0.0000 C   0  0  0  0  0  0  0  0  0  0  0  0
   15.5634   -1.0384    0.0000 C   0  0  1  0  0  0  0  0  0  0  0  0
   15.5793    1.0309    0.0000 C   0  0  0  0  0  0  0  0  0  0  0  0
   14.6613   -0.5176    0.0000 C   0  0  1  0  0  0  0  0  0  0  0  0
   16.7021    1.7536    0.0000 C   0  0  0  0  0  0  0  0  0  0  0  0
   21.0061    2.0101    0.0000 C   0  0  2  0  0  0  0  0  0  0  0  0
   14.6693    0.5240    0.0000 C   0  0  0  0  0  0  0  0  0  0  0  0
   19.0996   -0.0241    0.0000 C   0  0  0  0  0  0  0  0  0  0  0  0
   20.9894    0.9252    0.0000 C   0  0  0  0  0  0  0  0  0  0  0  0
   17.3236   -1.0173    0.0000 C   0  0  0  0  0  0  0  0  0  0  0  0
   16.1343    1.4316    0.0000 C   0  0  0  0  0  0  0  0  0  0  0  0
   15.5801   -2.1233    0.0000 C   0  0  0  0  0  0  0  0  0  0  0  0
   13.7134   -1.0455    0.0000 C   0  0  0  0  0  0  0  0  0  0  0  0
   14.6447   -2.6730    0.0000 C   0  0  0  0  0  0  0  0  0  0  0  0
   20.5740    3.4239    0.0000 C   0  0  0  0  0  0  0  0  0  0  0  0
   19.5740    3.4278    0.0000 C   0  0  0  0  0  0  0  0  0  0  0  0
   13.7050   -2.1305    0.0000 C   0  0  0  0  0  0  0  0  0  0  0  0
   13.7953   -0.0176    0.0000 C   0  0  0  0  0  0  0  0  0  0  0  0
   15.1480   -3.5371    0.0000 C   0  0  0  0  0  0  0  0  0  0  0  0
   14.1480   -3.5409    0.0000 C   0  0  0  0  0  0  0  0  0  0  0  0
   22.7380    1.9900    0.0000 C   0  0  2  0  0  0  0  0  0  0  0  0
   22.7265    0.9901    0.0000 C   0  0  1  0  0  0  0  0  0  0  0  0
   12.0632   -0.0176    0.0000 C   0  0  2  0  0  0  0  0  0  0  0  0
   23.5867    0.4801    0.0000 C   0  0  2  0  0  0  0  0  0  0  0  0
   24.4700    1.9700    0.0000 C   0  0  0  0  0  0  0  0  0  0  0  0
   12.0632    0.9824    0.0000 C   0  0  1  0  0  0  0  0  0  0  0  0
   24.4584    0.9701    0.0000 C   0  0  2  0  0  0  0  0  0  0  0  0
   11.1972    1.4824    0.0000 C   0  0  2  0  0  0  0  0  0  0  0  0
   10.3312   -0.0176    0.0000 C   0  0  1  0  0  0  0  0  0  0  0  0
   10.3312    0.9824    0.0000 C   0  0  1  0  0  0  0  0  0  0  0  0
    9.4651   -0.5176    0.0000 C   0  0  0  0  0  0  0  0  0  0  0  0
    8.5991   -2.0176    0.0000 C   0  0  2  0  0  0  0  0  0  0  0  0
    8.5991   -3.0176    0.0000 C   0  0  1  0  0  0  0  0  0  0  0  0
    7.7331   -3.5176    0.0000 C   0  0  2  0  0  0  0  0  0  0  0  0
    6.8671   -2.0176    0.0000 C   0  0  1  0  0  0  0  0  0  0  0  0
    6.8671   -3.0176    0.0000 C   0  0  1  0  0  0  0  0  0  0  0  0
    6.0010   -1.5176    0.0000 C   0  0  0  0  0  0  0  0  0  0  0  0
    5.1350   -3.0176    0.0000 C   0  0  2  0  0  0  0  0  0  0  0  0
    4.2690   -3.5176    0.0000 C   0  0  1  0  0  0  0  0  0  0  0  0
    3.4030   -3.0176    0.0000 C   0  0  1  0  0  0  0  0  0  0  0  0
    4.2690   -1.5176    0.0000 C   0  0  2  0  0  0  0  0  0  0  0  0
    3.4030   -2.0176    0.0000 C   0  0  2  0  0  0  0  0  0  0  0  0
    4.2690   -0.5176    0.0000 C   0  0  0  0  0  0  0  0  0  0  0  0
   18.9306    0.0397    0.0000 H   0  0  0  0  0  0  0  0  0  0  0  0
   19.1343    2.8673    0.0000 H   0  0  0  0  0  0  0  0  0  0  0  0
   17.1174    2.6063    0.0000 H   0  0  0  0  0  0  0  0  0  0  0  0
   16.7209    1.9134    0.0000 H   0  0  0  0  0  0  0  0  0  0  0  0
   18.6340    3.0180    0.0000 H   0  0  0  0  0  0  0  0  0  0  0  0
   17.8357    3.0210    0.0000 H   0  0  0  0  0  0  0  0  0  0  0  0
   19.6257   -0.0589    0.0000 H   0  0  0  0  0  0  0  0  0  0  0  0
   20.4237   -0.0804    0.0000 H   0  0  0  0  0  0  0  0  0  0  0  0
   18.4010   -1.1082    0.0000 H   0  0  0  0  0  0  0  0  0  0  0  0
   18.8048   -0.4210    0.0000 H   0  0  0  0  0  0  0  0  0  0  0  0
   16.3044   -1.4548    0.0000 H   0  0  0  0  0  0  0  0  0  0  0  0
   15.9875    1.4975    0.0000 H   0  0  0  0  0  0  0  0  0  0  0  0
   15.1894    1.5129    0.0000 H   0  0  0  0  0  0  0  0  0  0  0  0
   17.1801    2.1485    0.0000 H   0  0  0  0  0  0  0  0  0  0  0  0
   16.3073    2.2316    0.0000 H   0  0  0  0  0  0  0  0  0  0  0  0
   16.2241    1.3588    0.0000 H   0  0  0  0  0  0  0  0  0  0  0  0
   21.5388    1.6929    0.0000 H   0  0  0  0  0  0  0  0  0  0  0  0
   14.4648    1.1093    0.0000 H   0  0  0  0  0  0  0  0  0  0  0  0
   14.0577    0.4226    0.0000 H   0  0  0  0  0  0  0  0  0  0  0  0
   18.4797   -0.0145    0.0000 H   0  0  0  0  0  0  0  0  0  0  0  0
   19.0900   -0.6440    0.0000 H   0  0  0  0  0  0  0  0  0  0  0  0
   19.7195   -0.0336    0.0000 H   0  0  0  0  0  0  0  0  0  0  0  0
   21.1894    0.3384    0.0000 H   0  0  0  0  0  0  0  0  0  0  0  0
   21.6018    1.0219    0.0000 H   0  0  0  0  0  0  0  0  0  0  0  0
   17.3188   -1.6373    0.0000 H   0  0  0  0  0  0  0  0  0  0  0  0
   16.7186    1.6392    0.0000 H   0  0  0  0  0  0  0  0  0  0  0  0
   15.9268    2.0159    0.0000 H   0  0  0  0  0  0  0  0  0  0  0  0
   15.5501    1.2241    0.0000 H   0  0  0  0  0  0  0  0  0  0  0  0
   15.7981   -2.7037    0.0000 H   0  0  0  0  0  0  0  0  0  0  0  0
   16.1892   -2.0078    0.0000 H   0  0  0  0  0  0  0  0  0  0  0  0
   13.5089   -0.4602    0.0000 H   0  0  0  0  0  0  0  0  0  0  0  0
   13.1018   -1.1469    0.0000 H   0  0  0  0  0  0  0  0  0  0  0  0
   21.0474    3.0235    0.0000 H   0  0  0  0  0  0  0  0  0  0  0  0
   21.0505    3.8206    0.0000 H   0  0  0  0  0  0  0  0  0  0  0  0
   20.1122    3.7357    0.0000 H   0  0  0  0  0  0  0  0  0  0  0  0
   19.2661    3.9659    0.0000 H   0  0  0  0  0  0  0  0  0  0  0  0
   19.0359    3.1198    0.0000 H   0  0  0  0  0  0  0  0  0  0  0  0
   13.0950   -2.0197    0.0000 H   0  0  0  0  0  0  0  0  0  0  0  0
   13.4915   -2.7125    0.0000 H   0  0  0  0  0  0  0  0  0  0  0  0
   14.6123   -3.8491    0.0000 H   0  0  0  0  0  0  0  0  0  0  0  0
   15.4601   -4.0728    0.0000 H   0  0  0  0  0  0  0  0  0  0  0  0
   15.6837   -3.2250    0.0000 H   0  0  0  0  0  0  0  0  0  0  0  0
   13.6099   -3.2330    0.0000 H   0  0  0  0  0  0  0  0  0  0  0  0
   13.8401   -4.0790    0.0000 H   0  0  0  0  0  0  0  0  0  0  0  0
   14.6861   -3.8489    0.0000 H   0  0  0  0  0  0  0  0  0  0  0  0
   22.1976    1.6863    0.0000 H   0  0  0  0  0  0  0  0  0  0  0  0
   20.3894    4.8276    0.0000 H   0  0  0  0  0  0  0  0  0  0  0  0
   22.7193    0.3702    0.0000 H   0  0  0  0  0  0  0  0  0  0  0  0
   12.6002    0.2924    0.0000 H   0  0  0  0  0  0  0  0  0  0  0  0
   24.1200    0.1639    0.0000 H   0  0  0  0  0  0  0  0  0  0  0  0
   25.0793    1.8553    0.0000 H   0  0  0  0  0  0  0  0  0  0  0  0
   24.6888    2.5501    0.0000 H   0  0  0  0  0  0  0  0  0  0  0  0
   12.0632    1.6024    0.0000 H   0  0  0  0  0  0  0  0  0  0  0  0
   24.9989    1.2739    0.0000 H   0  0  0  0  0  0  0  0  0  0  0  0
   21.8476   -0.1198    0.0000 H   0  0  0  0  0  0  0  0  0  0  0  0
   10.6603    1.7924    0.0000 H   0  0  0  0  0  0  0  0  0  0  0  0
   10.3312   -0.6376    0.0000 H   0  0  0  0  0  0  0  0  0  0  0  0
    9.7942    0.6724    0.0000 H   0  0  0  0  0  0  0  0  0  0  0  0
   24.1084   -0.8360    0.0000 H   0  0  0  0  0  0  0  0  0  0  0  0
   12.9292    2.1024    0.0000 H   0  0  0  0  0  0  0  0  0  0  0  0
   25.8591    0.7639    0.0000 H   0  0  0  0  0  0  0  0  0  0  0  0
    9.2531    0.0650    0.0000 H   0  0  0  0  0  0  0  0  0  0  0  0
    8.8546   -0.6252    0.0000 H   0  0  0  0  0  0  0  0  0  0  0  0
   11.7341    2.7924    0.0000 H   0  0  0  0  0  0  0  0  0  0  0  0
    9.4651    2.1024    0.0000 H   0  0  0  0  0  0  0  0  0  0  0  0
    8.5991   -1.3976    0.0000 H   0  0  0  0  0  0  0  0  0  0  0  0
    8.5991   -3.6376    0.0000 H   0  0  0  0  0  0  0  0  0  0  0  0
    7.1962   -3.8276    0.0000 H   0  0  0  0  0  0  0  0  0  0  0  0
    6.8671   -1.3976    0.0000 H   0  0  0  0  0  0  0  0  0  0  0  0
    6.3301   -2.7076    0.0000 H   0  0  0  0  0  0  0  0  0  0  0  0
   10.0021   -3.2076    0.0000 H   0  0  0  0  0  0  0  0  0  0  0  0
    5.3905   -1.4099    0.0000 H   0  0  0  0  0  0  0  0  0  0  0  0
    5.7890   -2.1002    0.0000 H   0  0  0  0  0  0  0  0  0  0  0  0
    8.2700   -4.8276    0.0000 H   0  0  0  0  0  0  0  0  0  0  0  0
    5.1350   -3.6376    0.0000 H   0  0  0  0  0  0  0  0  0  0  0  0
    6.5380   -0.2076    0.0000 H   0  0  0  0  0  0  0  0  0  0  0  0
    3.7320   -3.8276    0.0000 H   0  0  0  0  0  0  0  0  0  0  0  0
    2.8660   -2.7076    0.0000 H   0  0  0  0  0  0  0  0  0  0  0  0
    4.8059   -1.2076    0.0000 H   0  0  0  0  0  0  0  0  0  0  0  0
    3.4030   -1.3976    0.0000 H   0  0  0  0  0  0  0  0  0  0  0  0
    3.7320   -4.8276    0.0000 H   0  0  0  0  0  0  0  0  0  0  0  0
    4.8890   -0.5176    0.0000 H   0  0  0  0  0  0  0  0  0  0  0  0
    4.2690    0.1024    0.0000 H   0  0  0  0  0  0  0  0  0  0  0  0
    3.6490   -0.5176    0.0000 H   0  0  0  0  0  0  0  0  0  0  0  0
    2.0000   -3.2076    0.0000 H   0  0  0  0  0  0  0  0  0  0  0  0
    2.5369   -0.8976    0.0000 H   0  0  0  0  0  0  0  0  0  0  0  0
 38  1  1  1  0  0  0
 53  1  1  6  0  0  0
  2 47  1  0  0  0  0
  2122  1  0  0  0  0
  3 50  1  0  0  0  0
 55  3  1  6  0  0  0
  4 50  2  0  0  0  0
  5 53  1  0  0  0  0
  5 57  1  0  0  0  0
  6 55  1  0  0  0  0
  6 61  1  0  0  0  0
 54  7  1  1  0  0  0
  7130  1  0  0  0  0
 56  8  1  6  0  0  0
  8134  1  0  0  0  0
 58  9  1  1  0  0  0
  9135  1  0  0  0  0
 59 10  1  6  0  0  0
 10136  1  0  0  0  0
 60 11  1  6  0  0  0
 11139  1  0  0  0  0
 62 12  1  1  0  0  0
 12140  1  0  0  0  0
 13 63  1  0  0  0  0
 64 13  1  1  0  0  0
 14 64  1  0  0  0  0
 14 67  1  0  0  0  0
 65 15  1  6  0  0  0
 15146  1  0  0  0  0
 66 16  1  1  0  0  0
 16149  1  0  0  0  0
 68 17  1  6  0  0  0
 70 17  1  1  0  0  0
 18 69  1  0  0  0  0
 18151  1  0  0  0  0
 19 70  1  0  0  0  0
 19 73  1  0  0  0  0
 71 20  1  6  0  0  0
 20156  1  0  0  0  0
 72 21  1  6  0  0  0
 21160  1  0  0  0  0
 74 22  1  1  0  0  0
 22161  1  0  0  0  0
 23 24  1  0  0  0  0
 23 26  1  0  0  0  0
 23 28  1  0  0  0  0
 23 37  1  1  0  0  0
 24 25  1  0  0  0  0
 24 33  1  0  0  0  0
 24 76  1  6  0  0  0
 25 27  1  0  0  0  0
 25 32  1  0  0  0  0
 25 40  1  1  0  0  0
 26 31  1  0  0  0  0
 26 35  1  0  0  0  0
 26 43  1  6  0  0  0
 27 29  1  0  0  0  0
 27 30  1  0  0  0  0
 27 77  1  6  0  0  0
 28 30  1  0  0  0  0
 28 78  1  0  0  0  0
 28 79  1  0  0  0  0
 29 38  1  0  0  0  0
 29 47  1  0  0  0  0
 29 48  1  1  0  0  0
 30 80  1  0  0  0  0
 30 81  1  0  0  0  0
 31 34  1  0  0  0  0
 31 42  2  0  0  0  0
 32 41  1  0  0  0  0
 32 82  1  0  0  0  0
 32 83  1  0  0  0  0
 33 42  1  0  0  0  0
 33 84  1  0  0  0  0
 33 85  1  0  0  0  0
 34 36  1  0  0  0  0
 34 44  1  0  0  0  0
 34 86  1  1  0  0  0
 35 39  1  0  0  0  0
 35 87  1  0  0  0  0
 35 88  1  0  0  0  0
 36 39  1  0  0  0  0
 36 45  1  0  0  0  0
 36 50  1  1  0  0  0
 37 89  1  0  0  0  0
 37 90  1  0  0  0  0
 37 91  1  0  0  0  0
 38 41  1  0  0  0  0
 38 92  1  0  0  0  0
 39 93  1  0  0  0  0
 39 94  1  0  0  0  0
 40 95  1  0  0  0  0
 40 96  1  0  0  0  0
 40 97  1  0  0  0  0
 41 98  1  0  0  0  0
 41 99  1  0  0  0  0
 42100  1  0  0  0  0
 43101  1  0  0  0  0
 43102  1  0  0  0  0
 43103  1  0  0  0  0
 44 46  1  0  0  0  0
 44104  1  0  0  0  0
 44105  1  0  0  0  0
 45 49  1  0  0  0  0
 45106  1  0  0  0  0
 45107  1  0  0  0  0
 46 49  1  0  0  0  0
 46 51  1  0  0  0  0
 46 52  1  0  0  0  0
 47108  1  0  0  0  0
 47109  1  0  0  0  0
 48110  1  0  0  0  0
 48111  1  0  0  0  0
 48112  1  0  0  0  0
 49113  1  0  0  0  0
 49114  1  0  0  0  0
 51115  1  0  0  0  0
 51116  1  0  0  0  0
 51117  1  0  0  0  0
 52118  1  0  0  0  0
 52119  1  0  0  0  0
 52120  1  0  0  0  0
 53 54  1  0  0  0  0
 53121  1  0  0  0  0
 54 56  1  0  0  0  0
 54123  1  0  0  0  0
 55 58  1  0  0  0  0
 55124  1  0  0  0  0
 56 59  1  0  0  0  0
 56125  1  0  0  0  0
 57 59  1  0  0  0  0
 57126  1  0  0  0  0
 57127  1  0  0  0  0
 58 60  1  0  0  0  0
 58128  1  0  0  0  0
 59129  1  0  0  0  0
 60 62  1  0  0  0  0
 60131  1  0  0  0  0
 61 62  1  0  0  0  0
 61 63  1  6  0  0  0
 61132  1  0  0  0  0
 62133  1  0  0  0  0
 63137  1  0  0  0  0
 63138  1  0  0  0  0
 64 65  1  0  0  0  0
 64141  1  0  0  0  0
 65 66  1  0  0  0  0
 65142  1  0  0  0  0
 66 68  1  0  0  0  0
 66143  1  0  0  0  0
 67 68  1  0  0  0  0
 67 69  1  1  0  0  0
 67144  1  0  0  0  0
 68145  1  0  0  0  0
 69147  1  0  0  0  0
 69148  1  0  0  0  0
 70 71  1  0  0  0  0
 70150  1  0  0  0  0
 71 72  1  0  0  0  0
 71152  1  0  0  0  0
 72 74  1  0  0  0  0
 72153  1  0  0  0  0
 73 74  1  0  0  0  0
 73 75  1  6  0  0  0
 73154  1  0  0  0  0
 74155  1  0  0  0  0
 75157  1  0  0  0  0
 75158  1  0  0  0  0
 75159  1  0  0  0  0
M  END
> <PUBCHEM_COMPOUND_CID>
21630094

> <PUBCHEM_COMPOUND_CANONICALIZED>
1

> <PUBCHEM_CACTVS_COMPLEXITY>
2060

> <PUBCHEM_CACTVS_HBOND_ACCEPTOR>
22

> <PUBCHEM_CACTVS_HBOND_DONOR>
13

> <PUBCHEM_CACTVS_ROTATABLE_BOND>
12

> <PUBCHEM_CACTVS_SUBSKEYS>
AAADcfB8PgAAAAAAAAAAAAAAAAAAAAAAAAA0aNGiAAAAAADAAAAAGgAACAAADxSwgAMCCAAABgCIAiDSCAAAAAAgAAAACAEAAAgREBIAAQAiQAAFgAAPAAPI6PyPgAAAAAAAAADAAAYAADAAAAAAAAAAAA==

> <PUBCHEM_IUPAC_OPENEYE_NAME>
[(2S,3R,4S,5S,6R)-6-[[(2R,3R,4R,5S,6R)-3,4-dihydroxy-6-(hydroxymethyl)-5-[(2S,3R,4R,5R,6S)-3,4,5-trihydroxy-6-methyl-tetrahydropyran-2-yl]oxy-tetrahydropyran-2-yl]oxymethyl]-3,4,5-trihydroxy-tetrahydropyran-2-yl] (4aS,6aR,6aS,6bR,8aR,9R,10S,12aR,14bS)-9-(hydroxymethyl)-2,2,6a,6b,9,12a-hexamethyl-10-[(2S,3R,4S,5S)-3,4,5-trihydroxytetrahydropyran-2-yl]oxy-1,3,4,5,6,6a,7,8,8a,10,11,12,13,14b-tetradecahydropicene-4a-carboxylate

> <PUBCHEM_IUPAC_CAS_NAME>
(4aS,6aR,6aS,6bR,8aR,9R,10S,12aR,14bS)-9-(hydroxymethyl)-2,2,6a,6b,9,12a-hexamethyl-10-[[(2S,3R,4S,5S)-3,4,5-trihydroxy-2-oxanyl]oxy]-1,3,4,5,6,6a,7,8,8a,10,11,12,13,14b-tetradecahydropicene-4a-carboxylic acid [(2S,3R,4S,5S,6R)-6-[[(2R,3R,4R,5S,6R)-3,4-dihydroxy-6-(hydroxymethyl)-5-[[(2S,3R,4R,5R,6S)-3,4,5-trihydroxy-6-methyl-2-oxanyl]oxy]-2-oxanyl]oxymethyl]-3,4,5-trihydroxy-2-oxanyl] ester

> <PUBCHEM_IUPAC_NAME_MARKUP>
[(2<I>S</I>,3<I>R</I>,4<I>S</I>,5<I>S</I>,6<I>R</I>)-6-[[(2<I>R</I>,3<I>R</I>,4<I>R</I>,5<I>S</I>,6<I>R</I>)-3,4-dihydroxy-6-(hydroxymethyl)-5-[(2<I>S</I>,3<I>R</I>,4<I>R</I>,5<I>R</I>,6<I>S</I>)-3,4,5-trihydroxy-6-methyloxan-2-yl]oxyoxan-2-yl]oxymethyl]-3,4,5-trihydroxyoxan-2-yl] (4<I>a</I><I>S</I>,6<I>a</I><I>R</I>,6<I>a</I><I>S</I>,6<I>b</I><I>R</I>,8<I>a</I><I>R</I>,9<I>R</I>,10<I>S</I>,12<I>a</I><I>R</I>,14<I>b</I><I>S</I>)-9-(hydroxymethyl)-2,2,6<I>a</I>,6<I>b</I>,9,12<I>a</I>-hexamethyl-10-[(2<I>S</I>,3<I>R</I>,4<I>S</I>,5<I>S</I>)-3,4,5-trihydroxyoxan-2-yl]oxy-1,3,4,5,6,6<I>a</I>,7,8,8<I>a</I>,10,11,12,13,14<I>b</I>-tetradecahydropicene-4<I>a</I>-carboxylate

> <PUBCHEM_IUPAC_NAME>
[(2S,3R,4S,5S,6R)-6-[[(2R,3R,4R,5S,6R)-3,4-dihydroxy-6-(hydroxymethyl)-5-[(2S,3R,4R,5R,6S)-3,4,5-trihydroxy-6-methyloxan-2-yl]oxyoxan-2-yl]oxymethyl]-3,4,5-trihydroxyoxan-2-yl] (4aS,6aR,6aS,6bR,8aR,9R,10S,12aR,14bS)-9-(hydroxymethyl)-2,2,6a,6b,9,12a-hexamethyl-10-[(2S,3R,4S,5S)-3,4,5-trihydroxyoxan-2-yl]oxy-1,3,4,5,6,6a,7,8,8a,10,11,12,13,14b-tetradecahydropicene-4a-carboxylate

> <PUBCHEM_IUPAC_SYSTEMATIC_NAME>
[(2S,3R,4S,5S,6R)-6-[[(2R,3R,4R,5S,6R)-6-(hydroxymethyl)-5-[(2S,3R,4R,5R,6S)-6-methyl-3,4,5-tris(oxidanyl)oxan-2-yl]oxy-3,4-bis(oxidanyl)oxan-2-yl]oxymethyl]-3,4,5-tris(oxidanyl)oxan-2-yl] (4aS,6aR,6aS,6bR,8aR,9R,10S,12aR,14bS)-9-(hydroxymethyl)-2,2,6a,6b,9,12a-hexamethyl-10-[(2S,3R,4S,5S)-3,4,5-tris(oxidanyl)oxan-2-yl]oxy-1,3,4,5,6,6a,7,8,8a,10,11,12,13,14b-tetradecahydropicene-4a-carboxylate

> <PUBCHEM_IUPAC_TRADITIONAL_NAME>
(4aS,6aR,6aS,6bR,8aR,9R,10S,12aR,14bS)-2,2,6a,6b,9,12a-hexamethyl-9-methylol-10-[(2S,3R,4S,5S)-3,4,5-trihydroxytetrahydropyran-2-yl]oxy-1,3,4,5,6,6a,7,8,8a,10,11,12,13,14b-tetradecahydropicene-4a-carboxylic acid [(2S,3R,4S,5S,6R)-6-[[(2R,3R,4R,5S,6R)-3,4-dihydroxy-6-methylol-5-[(2S,3R,4R,5R,6S)-3,4,5-trihydroxy-6-methyl-tetrahydropyran-2-yl]oxy-tetrahydropyran-2-yl]oxymethyl]-3,4,5-trihydroxy-tetrahydropyran-2-yl] ester

> <PUBCHEM_IUPAC_INCHI>
InChI=1S/C53H86O22/c1-23-32(57)35(60)39(64)45(70-23)74-42-27(19-54)71-43(41(66)37(42)62)69-21-28-34(59)36(61)40(65)46(72-28)75-47(67)53-16-14-48(2,3)18-25(53)24-8-9-30-49(4)12-11-31(73-44-38(63)33(58)26(56)20-68-44)50(5,22-55)29(49)10-13-52(30,7)51(24,6)15-17-53/h8,23,25-46,54-66H,9-22H2,1-7H3/t23-,25-,26-,27+,28+,29+,30+,31-,32-,33-,34+,35+,36-,37+,38+,39+,40+,41+,42+,43+,44-,45-,46-,49-,50-,51+,52+,53-/m0/s1

> <PUBCHEM_IUPAC_INCHIKEY>
UEHILKCNLIKLEV-LXABABOZSA-N

> <PUBCHEM_XLOGP3_AA>
-0.9

> <PUBCHEM_EXACT_MASS>
1074.561074

> <PUBCHEM_MOLECULAR_FORMULA>
C53H86O22

> <PUBCHEM_MOLECULAR_WEIGHT>
1075.2

> <PUBCHEM_OPENEYE_CAN_SMILES>
CC1C(C(C(C(O1)OC2C(OC(C(C2O)O)OCC3C(C(C(C(O3)OC(=O)C45CCC(CC4C6=CCC7C8(CCC(C(C8CCC7(C6(CC5)C)C)(C)CO)OC9C(C(C(CO9)O)O)O)C)(C)C)O)O)O)CO)O)O)O

> <PUBCHEM_OPENEYE_ISO_SMILES>
C[C@H]1[C@@H]([C@H]([C@H]([C@@H](O1)O[C@@H]2[C@H](O[C@H]([C@@H]([C@H]2O)O)OC[C@@H]3[C@H]([C@@H]([C@H]([C@@H](O3)OC(=O)[C@@]45CC[C@@]6(C(=CC[C@H]7[C@]6(CC[C@@H]8[C@@]7(CC[C@@H]([C@@]8(C)CO)O[C@H]9[C@@H]([C@H]([C@H](CO9)O)O)O)C)C)[C@@H]4CC(CC5)(C)C)C)O)O)O)CO)O)O)O

> <PUBCHEM_CACTVS_TPSA>
354

> <PUBCHEM_MONOISOTOPIC_WEIGHT>
1074.561074

> <PUBCHEM_TOTAL_CHARGE>
0

> <PUBCHEM_HEAVY_ATOM_COUNT>
75

> <PUBCHEM_ATOM_DEF_STEREO_COUNT>
28

> <PUBCHEM_ATOM_UDEF_STEREO_COUNT>
0

> <PUBCHEM_BOND_DEF_STEREO_COUNT>
0

> <PUBCHEM_BOND_UDEF_STEREO_COUNT>
0

> <PUBCHEM_ISOTOPIC_ATOM_COUNT>
0

> <PUBCHEM_COMPONENT_COUNT>
1

> <PUBCHEM_CACTVS_TAUTO_COUNT>
-1

> <PUBCHEM_COORDINATE_TYPE>
1
5
255

> <PUBCHEM_BONDANNOTATIONS>
38  1  5
53  1  6
59  10  6
60  11  6
62  12  5
64  13  5
65  15  6
66  16  5
68  17  6
70  17  5
71  20  6
72  21  6
74  22  5
23  37  5
24  76  6
25  40  5
26  43  6
27  77  6
29  48  5
55  3  6
34  86  5
36  50  5
61  63  6
67  69  5
54  7  5
73  75  6
56  8  6
58  9  5

$$$$
