14284436
  -OEChem-09062003172D

141148  0     1  0  0  0  0  0999 V2000
    3.2715    4.6175    0.0000 O   0  0  0  0  0  0  0  0  0  0  0  0
    2.6200    2.1623    0.0000 O   0  0  0  0  0  0  0  0  0  0  0  0
   10.3591   -1.6234    0.0000 O   0  0  0  0  0  0  0  0  0  0  0  0
    8.6271   -1.6234    0.0000 O   0  0  0  0  0  0  0  0  0  0  0  0
    2.4229    6.1274    0.0000 O   0  0  0  0  0  0  0  0  0  0  0  0
    9.4931   -3.1234    0.0000 O   0  0  0  0  0  0  0  0  0  0  0  0
    5.0150    5.5974    0.0000 O   0  0  0  0  0  0  0  0  0  0  0  0
    5.0381    7.5973    0.0000 O   0  0  0  0  0  0  0  0  0  0  0  0
   12.0912   -2.6234    0.0000 O   0  0  0  0  0  0  0  0  0  0  0  0
    3.3178    8.6172    0.0000 O   0  0  0  0  0  0  0  0  0  0  0  0
   12.0912   -4.6234    0.0000 O   0  0  0  0  0  0  0  0  0  0  0  0
   10.3591   -5.6234    0.0000 O   0  0  0  0  0  0  0  0  0  0  0  0
    8.6271   -5.6234    0.0000 O   0  0  0  0  0  0  0  0  0  0  0  0
    6.8950   -5.6234    0.0000 O   0  0  0  0  0  0  0  0  0  0  0  0
    8.6271   -7.6234    0.0000 O   0  0  0  0  0  0  0  0  0  0  0  0
    6.8950   -8.6234    0.0000 O   0  0  0  0  0  0  0  0  0  0  0  0
    5.1630   -7.6234    0.0000 O   0  0  0  0  0  0  0  0  0  0  0  0
    5.1630   -4.6234    0.0000 O   0  0  0  0  0  0  0  0  0  0  0  0
    6.8550    1.4454    0.0000 C   0  0  2  0  0  0  0  0  0  0  0  0
    6.8628    2.4454    0.0000 C   0  0  1  0  0  0  0  0  0  0  0  0
    5.9730    2.9869    0.0000 C   0  0  2  0  0  0  0  0  0  0  0  0
    7.7172    0.9387    0.0000 C   0  0  1  0  0  0  0  0  0  0  0  0
    5.0630    2.4801    0.0000 C   0  0  2  0  0  0  0  0  0  0  0  0
    5.9570    0.9176    0.0000 C   0  0  0  0  0  0  0  0  0  0  0  0
    4.1233    3.0226    0.0000 C   0  0  1  0  0  0  0  0  0  0  0  0
    5.0549    1.4385    0.0000 C   0  0  0  0  0  0  0  0  0  0  0  0
    8.5870    1.4320    0.0000 C   0  0  0  0  0  0  0  0  0  0  0  0
    7.7326    2.9387    0.0000 C   0  0  0  0  0  0  0  0  0  0  0  0
    6.0064    4.0714    0.0000 C   0  0  0  0  0  0  0  0  0  0  0  0
    9.4931    0.9182    0.0000 C   0  0  1  0  0  0  0  0  0  0  0  0
    7.6931   -0.1026    0.0000 C   0  0  0  0  0  0  0  0  0  0  0  0
    9.4931   -0.1234    0.0000 C   0  0  1  0  0  0  0  0  0  0  0  0
    6.5059    0.5083    0.0000 C   0  0  0  0  0  0  0  0  0  0  0  0
    4.1317    4.1075    0.0000 C   0  0  2  0  0  0  0  0  0  0  0  0
    8.5870   -0.6373    0.0000 C   0  0  0  0  0  0  0  0  0  0  0  0
    6.8466    3.4735    0.0000 C   0  0  0  0  0  0  0  0  0  0  0  0
    5.0796    4.6355    0.0000 C   0  0  0  0  0  0  0  0  0  0  0  0
    8.5948    2.4320    0.0000 C   0  0  0  0  0  0  0  0  0  0  0  0
    7.0685    0.1777    0.0000 C   0  0  0  0  0  0  0  0  0  0  0  0
   10.4243    1.4751    0.0000 C   0  0  0  0  0  0  0  0  0  0  0  0
   10.4243   -0.6803    0.0000 C   0  0  0  0  0  0  0  0  0  0  0  0
   11.3681    0.9399    0.0000 C   0  0  0  0  0  0  0  0  0  0  0  0
    3.1233    3.0264    0.0000 C   0  0  0  0  0  0  0  0  0  0  0  0
    3.6200    2.1585    0.0000 C   0  0  0  0  0  0  0  0  0  0  0  0
   11.3681   -0.1451    0.0000 C   0  0  0  0  0  0  0  0  0  0  0  0
    9.4931   -1.1234    0.0000 C   0  0  0  0  0  0  0  0  0  0  0  0
   11.8647    1.8078    0.0000 C   0  0  0  0  0  0  0  0  0  0  0  0
   12.3680    0.9437    0.0000 C   0  0  0  0  0  0  0  0  0  0  0  0
    3.2831    5.6174    0.0000 C   0  0  2  0  0  0  0  0  0  0  0  0
    4.1548    6.1074    0.0000 C   0  0  1  0  0  0  0  0  0  0  0  0
   10.3591   -2.6234    0.0000 C   0  0  2  0  0  0  0  0  0  0  0  0
    4.1664    7.1073    0.0000 C   0  0  2  0  0  0  0  0  0  0  0  0
    2.4344    7.1274    0.0000 C   0  0  0  0  0  0  0  0  0  0  0  0
   11.2252   -3.1234    0.0000 C   0  0  1  0  0  0  0  0  0  0  0  0
    3.3062    7.6173    0.0000 C   0  0  2  0  0  0  0  0  0  0  0  0
   11.2252   -4.1234    0.0000 C   0  0  2  0  0  0  0  0  0  0  0  0
    9.4931   -4.1234    0.0000 C   0  0  1  0  0  0  0  0  0  0  0  0
   10.3591   -4.6234    0.0000 C   0  0  1  0  0  0  0  0  0  0  0  0
    8.6271   -4.6234    0.0000 C   0  0  0  0  0  0  0  0  0  0  0  0
    7.7611   -6.1234    0.0000 C   0  0  2  0  0  0  0  0  0  0  0  0
    7.7611   -7.1234    0.0000 C   0  0  1  0  0  0  0  0  0  0  0  0
    6.8950   -7.6234    0.0000 C   0  0  2  0  0  0  0  0  0  0  0  0
    6.0290   -6.1234    0.0000 C   0  0  1  0  0  0  0  0  0  0  0  0
    6.0290   -7.1234    0.0000 C   0  0  1  0  0  0  0  0  0  0  0  0
    5.1630   -5.6234    0.0000 C   0  0  0  0  0  0  0  0  0  0  0  0
    7.5956    2.0147    0.0000 H   0  0  0  0  0  0  0  0  0  0  0  0
    4.3252    2.0579    0.0000 H   0  0  0  0  0  0  0  0  0  0  0  0
    5.5597    0.4417    0.0000 H   0  0  0  0  0  0  0  0  0  0  0  0
    6.3580    0.4448    0.0000 H   0  0  0  0  0  0  0  0  0  0  0  0
    4.4449    1.5493    0.0000 H   0  0  0  0  0  0  0  0  0  0  0  0
    4.8414    0.8564    0.0000 H   0  0  0  0  0  0  0  0  0  0  0  0
    8.1348    3.4105    0.0000 H   0  0  0  0  0  0  0  0  0  0  0  0
    7.3378    3.4167    0.0000 H   0  0  0  0  0  0  0  0  0  0  0  0
    6.6137    3.9465    0.0000 H   0  0  0  0  0  0  0  0  0  0  0  0
    6.2334    4.6484    0.0000 H   0  0  0  0  0  0  0  0  0  0  0  0
   10.2325    0.4989    0.0000 H   0  0  0  0  0  0  0  0  0  0  0  0
    7.0849    0.0176    0.0000 H   0  0  0  0  0  0  0  0  0  0  0  0
    7.4706   -0.6813    0.0000 H   0  0  0  0  0  0  0  0  0  0  0  0
    5.9249    0.7248    0.0000 H   0  0  0  0  0  0  0  0  0  0  0  0
    6.2894   -0.0726    0.0000 H   0  0  0  0  0  0  0  0  0  0  0  0
    7.0869    0.2919    0.0000 H   0  0  0  0  0  0  0  0  0  0  0  0
    3.5918    3.8027    0.0000 H   0  0  0  0  0  0  0  0  0  0  0  0
    8.1824   -1.1071    0.0000 H   0  0  0  0  0  0  0  0  0  0  0  0
    8.9807   -1.1163    0.0000 H   0  0  0  0  0  0  0  0  0  0  0  0
    7.1483    2.9318    0.0000 H   0  0  0  0  0  0  0  0  0  0  0  0
    7.3882    3.7752    0.0000 H   0  0  0  0  0  0  0  0  0  0  0  0
    6.5449    4.0152    0.0000 H   0  0  0  0  0  0  0  0  0  0  0  0
    5.4878    5.1021    0.0000 H   0  0  0  0  0  0  0  0  0  0  0  0
    4.6896    5.1175    0.0000 H   0  0  0  0  0  0  0  0  0  0  0  0
    9.1341    2.7379    0.0000 H   0  0  0  0  0  0  0  0  0  0  0  0
    6.5966    0.5799    0.0000 H   0  0  0  0  0  0  0  0  0  0  0  0
    6.6663   -0.2941    0.0000 H   0  0  0  0  0  0  0  0  0  0  0  0
    7.5403   -0.2245    0.0000 H   0  0  0  0  0  0  0  0  0  0  0  0
   10.8179    1.9541    0.0000 H   0  0  0  0  0  0  0  0  0  0  0  0
   10.0197    1.9449    0.0000 H   0  0  0  0  0  0  0  0  0  0  0  0
   10.0197   -1.1501    0.0000 H   0  0  0  0  0  0  0  0  0  0  0  0
   10.8179   -1.1594    0.0000 H   0  0  0  0  0  0  0  0  0  0  0  0
    3.2333    3.6366    0.0000 H   0  0  0  0  0  0  0  0  0  0  0  0
    2.5415    3.2407    0.0000 H   0  0  0  0  0  0  0  0  0  0  0  0
    3.0842    2.4705    0.0000 H   0  0  0  0  0  0  0  0  0  0  0  0
    3.3079    1.6227    0.0000 H   0  0  0  0  0  0  0  0  0  0  0  0
    4.1557    1.8464    0.0000 H   0  0  0  0  0  0  0  0  0  0  0  0
   11.5771   -0.7288    0.0000 H   0  0  0  0  0  0  0  0  0  0  0  0
   11.9789   -0.0390    0.0000 H   0  0  0  0  0  0  0  0  0  0  0  0
   12.4028    1.4999    0.0000 H   0  0  0  0  0  0  0  0  0  0  0  0
   12.1726    2.3460    0.0000 H   0  0  0  0  0  0  0  0  0  0  0  0
   11.3266    2.1158    0.0000 H   0  0  0  0  0  0  0  0  0  0  0  0
   12.3704    0.3237    0.0000 H   0  0  0  0  0  0  0  0  0  0  0  0
   12.9880    0.9461    0.0000 H   0  0  0  0  0  0  0  0  0  0  0  0
   12.3657    1.5637    0.0000 H   0  0  0  0  0  0  0  0  0  0  0  0
    2.7426    5.3137    0.0000 H   0  0  0  0  0  0  0  0  0  0  0  0
    2.0000    2.1647    0.0000 H   0  0  0  0  0  0  0  0  0  0  0  0
    4.6953    6.4112    0.0000 H   0  0  0  0  0  0  0  0  0  0  0  0
    9.8222   -2.3134    0.0000 H   0  0  0  0  0  0  0  0  0  0  0  0
    4.1736    7.7273    0.0000 H   0  0  0  0  0  0  0  0  0  0  0  0
    2.2291    7.7124    0.0000 H   0  0  0  0  0  0  0  0  0  0  0  0
    1.8227    7.0268    0.0000 H   0  0  0  0  0  0  0  0  0  0  0  0
   11.7621   -3.4334    0.0000 H   0  0  0  0  0  0  0  0  0  0  0  0
    2.7729    7.9335    0.0000 H   0  0  0  0  0  0  0  0  0  0  0  0
    5.5555    5.9012    0.0000 H   0  0  0  0  0  0  0  0  0  0  0  0
   11.2252   -4.7434    0.0000 H   0  0  0  0  0  0  0  0  0  0  0  0
    8.9562   -3.8134    0.0000 H   0  0  0  0  0  0  0  0  0  0  0  0
    9.8222   -4.9334    0.0000 H   0  0  0  0  0  0  0  0  0  0  0  0
    5.0453    8.2172    0.0000 H   0  0  0  0  0  0  0  0  0  0  0  0
   12.0912   -2.0034    0.0000 H   0  0  0  0  0  0  0  0  0  0  0  0
    2.7844    8.9334    0.0000 H   0  0  0  0  0  0  0  0  0  0  0  0
    8.4150   -4.0408    0.0000 H   0  0  0  0  0  0  0  0  0  0  0  0
    8.0165   -4.7311    0.0000 H   0  0  0  0  0  0  0  0  0  0  0  0
   12.6281   -4.3134    0.0000 H   0  0  0  0  0  0  0  0  0  0  0  0
   10.8961   -5.9334    0.0000 H   0  0  0  0  0  0  0  0  0  0  0  0
    8.2980   -6.4334    0.0000 H   0  0  0  0  0  0  0  0  0  0  0  0
    7.7611   -7.7434    0.0000 H   0  0  0  0  0  0  0  0  0  0  0  0
    6.3581   -7.9334    0.0000 H   0  0  0  0  0  0  0  0  0  0  0  0
    6.0290   -5.5034    0.0000 H   0  0  0  0  0  0  0  0  0  0  0  0
    6.0290   -7.7434    0.0000 H   0  0  0  0  0  0  0  0  0  0  0  0
    9.1640   -7.3134    0.0000 H   0  0  0  0  0  0  0  0  0  0  0  0
    4.5524   -5.5158    0.0000 H   0  0  0  0  0  0  0  0  0  0  0  0
    4.9509   -6.2060    0.0000 H   0  0  0  0  0  0  0  0  0  0  0  0
    6.3581   -8.9334    0.0000 H   0  0  0  0  0  0  0  0  0  0  0  0
    4.6260   -7.3134    0.0000 H   0  0  0  0  0  0  0  0  0  0  0  0
    4.6260   -4.3134    0.0000 H   0  0  0  0  0  0  0  0  0  0  0  0
 34  1  1  1  0  0  0
 49  1  1  6  0  0  0
  2 43  1  0  0  0  0
  2112  1  0  0  0  0
  3 46  1  0  0  0  0
 51  3  1  1  0  0  0
  4 46  2  0  0  0  0
  5 49  1  0  0  0  0
  5 53  1  0  0  0  0
  6 51  1  0  0  0  0
  6 57  1  0  0  0  0
 50  7  1  1  0  0  0
  7120  1  0  0  0  0
 52  8  1  6  0  0  0
  8124  1  0  0  0  0
 54  9  1  6  0  0  0
  9125  1  0  0  0  0
 55 10  1  6  0  0  0
 10126  1  0  0  0  0
 56 11  1  1  0  0  0
 11129  1  0  0  0  0
 58 12  1  6  0  0  0
 12130  1  0  0  0  0
 13 59  1  0  0  0  0
 60 13  1  1  0  0  0
 14 60  1  0  0  0  0
 14 63  1  0  0  0  0
 61 15  1  6  0  0  0
 15136  1  0  0  0  0
 62 16  1  1  0  0  0
 16139  1  0  0  0  0
 64 17  1  6  0  0  0
 17140  1  0  0  0  0
 18 65  1  0  0  0  0
 18141  1  0  0  0  0
 19 20  1  0  0  0  0
 19 22  1  0  0  0  0
 19 24  1  0  0  0  0
 19 33  1  1  0  0  0
 20 21  1  0  0  0  0
 20 28  1  0  0  0  0
 20 66  1  6  0  0  0
 21 23  1  0  0  0  0
 21 29  1  0  0  0  0
 21 36  1  1  0  0  0
 22 27  1  0  0  0  0
 22 31  1  0  0  0  0
 22 39  1  6  0  0  0
 23 25  1  0  0  0  0
 23 26  1  0  0  0  0
 23 67  1  6  0  0  0
 24 26  1  0  0  0  0
 24 68  1  0  0  0  0
 24 69  1  0  0  0  0
 25 34  1  0  0  0  0
 25 43  1  0  0  0  0
 25 44  1  1  0  0  0
 26 70  1  0  0  0  0
 26 71  1  0  0  0  0
 27 30  1  0  0  0  0
 27 38  2  0  0  0  0
 28 38  1  0  0  0  0
 28 72  1  0  0  0  0
 28 73  1  0  0  0  0
 29 37  1  0  0  0  0
 29 74  1  0  0  0  0
 29 75  1  0  0  0  0
 30 32  1  0  0  0  0
 30 40  1  0  0  0  0
 30 76  1  1  0  0  0
 31 35  1  0  0  0  0
 31 77  1  0  0  0  0
 31 78  1  0  0  0  0
 32 35  1  0  0  0  0
 32 41  1  0  0  0  0
 32 46  1  1  0  0  0
 33 79  1  0  0  0  0
 33 80  1  0  0  0  0
 33 81  1  0  0  0  0
 34 37  1  0  0  0  0
 34 82  1  0  0  0  0
 35 83  1  0  0  0  0
 35 84  1  0  0  0  0
 36 85  1  0  0  0  0
 36 86  1  0  0  0  0
 36 87  1  0  0  0  0
 37 88  1  0  0  0  0
 37 89  1  0  0  0  0
 38 90  1  0  0  0  0
 39 91  1  0  0  0  0
 39 92  1  0  0  0  0
 39 93  1  0  0  0  0
 40 42  1  0  0  0  0
 40 94  1  0  0  0  0
 40 95  1  0  0  0  0
 41 45  1  0  0  0  0
 41 96  1  0  0  0  0
 41 97  1  0  0  0  0
 42 45  1  0  0  0  0
 42 47  1  0  0  0  0
 42 48  1  0  0  0  0
 43 98  1  0  0  0  0
 43 99  1  0  0  0  0
 44100  1  0  0  0  0
 44101  1  0  0  0  0
 44102  1  0  0  0  0
 45103  1  0  0  0  0
 45104  1  0  0  0  0
 47105  1  0  0  0  0
 47106  1  0  0  0  0
 47107  1  0  0  0  0
 48108  1  0  0  0  0
 48109  1  0  0  0  0
 48110  1  0  0  0  0
 49 50  1  0  0  0  0
 49111  1  0  0  0  0
 50 52  1  0  0  0  0
 50113  1  0  0  0  0
 51 54  1  0  0  0  0
 51114  1  0  0  0  0
 52 55  1  0  0  0  0
 52115  1  0  0  0  0
 53 55  1  0  0  0  0
 53116  1  0  0  0  0
 53117  1  0  0  0  0
 54 56  1  0  0  0  0
 54118  1  0  0  0  0
 55119  1  0  0  0  0
 56 58  1  0  0  0  0
 56121  1  0  0  0  0
 57 58  1  0  0  0  0
 57 59  1  1  0  0  0
 57122  1  0  0  0  0
 58123  1  0  0  0  0
 59127  1  0  0  0  0
 59128  1  0  0  0  0
 60 61  1  0  0  0  0
 60131  1  0  0  0  0
 61 62  1  0  0  0  0
 61132  1  0  0  0  0
 62 64  1  0  0  0  0
 62133  1  0  0  0  0
 63 64  1  0  0  0  0
 63 65  1  1  0  0  0
 63134  1  0  0  0  0
 64135  1  0  0  0  0
 65137  1  0  0  0  0
 65138  1  0  0  0  0
M  END
> <PUBCHEM_COMPOUND_CID>
14284436

> <PUBCHEM_COMPOUND_CANONICALIZED>
1

> <PUBCHEM_CACTVS_COMPLEXITY>
1770

> <PUBCHEM_CACTVS_HBOND_ACCEPTOR>
18

> <PUBCHEM_CACTVS_HBOND_DONOR>
11

> <PUBCHEM_CACTVS_ROTATABLE_BOND>
10

> <PUBCHEM_CACTVS_SUBSKEYS>
AAADcfB8PgAAAAAAAAAAAAAAAAAAAAAAAAA0aNGCAAAAAADAAAAAGgAACAAADxSwgAMCCAAABgCIAiDSCAAAAAAgAAAACAEAAAgREBIAAQAiQAAFgAAPAAPI6PyPgAAAAAAAAADAAAYAADAAAAAAAAAAAA==

> <PUBCHEM_IUPAC_OPENEYE_NAME>
[(2S,3R,4S,5S,6R)-3,4,5-trihydroxy-6-[[(2R,3R,4S,5S,6R)-3,4,5-trihydroxy-6-(hydroxymethyl)tetrahydropyran-2-yl]oxymethyl]tetrahydropyran-2-yl] (4aS,6aR,6aS,6bR,8aR,9R,10S,12aR,14bS)-9-(hydroxymethyl)-2,2,6a,6b,9,12a-hexamethyl-10-[(2S,3R,4S,5S)-3,4,5-trihydroxytetrahydropyran-2-yl]oxy-1,3,4,5,6,6a,7,8,8a,10,11,12,13,14b-tetradecahydropicene-4a-carboxylate

> <PUBCHEM_IUPAC_CAS_NAME>
(4aS,6aR,6aS,6bR,8aR,9R,10S,12aR,14bS)-9-(hydroxymethyl)-2,2,6a,6b,9,12a-hexamethyl-10-[[(2S,3R,4S,5S)-3,4,5-trihydroxy-2-oxanyl]oxy]-1,3,4,5,6,6a,7,8,8a,10,11,12,13,14b-tetradecahydropicene-4a-carboxylic acid [(2S,3R,4S,5S,6R)-3,4,5-trihydroxy-6-[[(2R,3R,4S,5S,6R)-3,4,5-trihydroxy-6-(hydroxymethyl)-2-oxanyl]oxymethyl]-2-oxanyl] ester

> <PUBCHEM_IUPAC_NAME_MARKUP>
[(2<I>S</I>,3<I>R</I>,4<I>S</I>,5<I>S</I>,6<I>R</I>)-3,4,5-trihydroxy-6-[[(2<I>R</I>,3<I>R</I>,4<I>S</I>,5<I>S</I>,6<I>R</I>)-3,4,5-trihydroxy-6-(hydroxymethyl)oxan-2-yl]oxymethyl]oxan-2-yl] (4<I>a</I><I>S</I>,6<I>a</I><I>R</I>,6<I>a</I><I>S</I>,6<I>b</I><I>R</I>,8<I>a</I><I>R</I>,9<I>R</I>,10<I>S</I>,12<I>a</I><I>R</I>,14<I>b</I><I>S</I>)-9-(hydroxymethyl)-2,2,6<I>a</I>,6<I>b</I>,9,12<I>a</I>-hexamethyl-10-[(2<I>S</I>,3<I>R</I>,4<I>S</I>,5<I>S</I>)-3,4,5-trihydroxyoxan-2-yl]oxy-1,3,4,5,6,6<I>a</I>,7,8,8<I>a</I>,10,11,12,13,14<I>b</I>-tetradecahydropicene-4<I>a</I>-carboxylate

> <PUBCHEM_IUPAC_NAME>
[(2S,3R,4S,5S,6R)-3,4,5-trihydroxy-6-[[(2R,3R,4S,5S,6R)-3,4,5-trihydroxy-6-(hydroxymethyl)oxan-2-yl]oxymethyl]oxan-2-yl] (4aS,6aR,6aS,6bR,8aR,9R,10S,12aR,14bS)-9-(hydroxymethyl)-2,2,6a,6b,9,12a-hexamethyl-10-[(2S,3R,4S,5S)-3,4,5-trihydroxyoxan-2-yl]oxy-1,3,4,5,6,6a,7,8,8a,10,11,12,13,14b-tetradecahydropicene-4a-carboxylate

> <PUBCHEM_IUPAC_SYSTEMATIC_NAME>
[(2S,3R,4S,5S,6R)-6-[[(2R,3R,4S,5S,6R)-6-(hydroxymethyl)-3,4,5-tris(oxidanyl)oxan-2-yl]oxymethyl]-3,4,5-tris(oxidanyl)oxan-2-yl] (4aS,6aR,6aS,6bR,8aR,9R,10S,12aR,14bS)-9-(hydroxymethyl)-2,2,6a,6b,9,12a-hexamethyl-10-[(2S,3R,4S,5S)-3,4,5-tris(oxidanyl)oxan-2-yl]oxy-1,3,4,5,6,6a,7,8,8a,10,11,12,13,14b-tetradecahydropicene-4a-carboxylate

> <PUBCHEM_IUPAC_TRADITIONAL_NAME>
(4aS,6aR,6aS,6bR,8aR,9R,10S,12aR,14bS)-2,2,6a,6b,9,12a-hexamethyl-9-methylol-10-[(2S,3R,4S,5S)-3,4,5-trihydroxytetrahydropyran-2-yl]oxy-1,3,4,5,6,6a,7,8,8a,10,11,12,13,14b-tetradecahydropicene-4a-carboxylic acid [(2S,3R,4S,5S,6R)-3,4,5-trihydroxy-6-[[(2R,3R,4S,5S,6R)-3,4,5-trihydroxy-6-methylol-tetrahydropyran-2-yl]oxymethyl]tetrahydropyran-2-yl] ester

> <PUBCHEM_IUPAC_INCHI>
InChI=1S/C47H76O18/c1-42(2)13-15-47(41(59)65-40-37(58)34(55)32(53)26(63-40)20-61-38-36(57)33(54)31(52)25(18-48)62-38)16-14-45(5)22(23(47)17-42)7-8-28-43(3)11-10-29(64-39-35(56)30(51)24(50)19-60-39)44(4,21-49)27(43)9-12-46(28,45)6/h7,23-40,48-58H,8-21H2,1-6H3/t23-,24-,25+,26+,27+,28+,29-,30-,31+,32+,33-,34-,35+,36+,37+,38+,39-,40-,43-,44-,45+,46+,47-/m0/s1

> <PUBCHEM_IUPAC_INCHIKEY>
CCRXMHCQWYVXTE-HMRSNRLKSA-N

> <PUBCHEM_XLOGP3_AA>
0.8

> <PUBCHEM_EXACT_MASS>
928.503166

> <PUBCHEM_MOLECULAR_FORMULA>
C47H76O18

> <PUBCHEM_MOLECULAR_WEIGHT>
929.1

> <PUBCHEM_OPENEYE_CAN_SMILES>
CC1(CCC2(CCC3(C(=CCC4C3(CCC5C4(CCC(C5(C)CO)OC6C(C(C(CO6)O)O)O)C)C)C2C1)C)C(=O)OC7C(C(C(C(O7)COC8C(C(C(C(O8)CO)O)O)O)O)O)O)C

> <PUBCHEM_OPENEYE_ISO_SMILES>
C[C@]12CC[C@@H]([C@@]([C@@H]1CC[C@@]3([C@@H]2CC=C4[C@]3(CC[C@@]5([C@H]4CC(CC5)(C)C)C(=O)O[C@H]6[C@@H]([C@H]([C@@H]([C@H](O6)CO[C@H]7[C@@H]([C@H]([C@@H]([C@H](O7)CO)O)O)O)O)O)O)C)C)(C)CO)O[C@H]8[C@@H]([C@H]([C@H](CO8)O)O)O

> <PUBCHEM_CACTVS_TPSA>
295

> <PUBCHEM_MONOISOTOPIC_WEIGHT>
928.503166

> <PUBCHEM_TOTAL_CHARGE>
0

> <PUBCHEM_HEAVY_ATOM_COUNT>
65

> <PUBCHEM_ATOM_DEF_STEREO_COUNT>
23

> <PUBCHEM_ATOM_UDEF_STEREO_COUNT>
0

> <PUBCHEM_BOND_DEF_STEREO_COUNT>
0

> <PUBCHEM_BOND_UDEF_STEREO_COUNT>
0

> <PUBCHEM_ISOTOPIC_ATOM_COUNT>
0

> <PUBCHEM_COMPONENT_COUNT>
1

> <PUBCHEM_CACTVS_TAUTO_COUNT>
-1

> <PUBCHEM_COORDINATE_TYPE>
1
5
255

> <PUBCHEM_BONDANNOTATIONS>
34  1  5
49  1  6
55  10  6
56  11  5
58  12  6
60  13  5
61  15  6
62  16  5
64  17  6
19  33  5
20  66  6
21  36  5
22  39  6
23  67  6
25  44  5
51  3  5
30  76  5
32  46  5
57  59  5
63  65  5
50  7  5
52  8  6
54  9  6

$$$$
