102045132
  -OEChem-08272000052D

116123  0     1  0  0  0  0  0999 V2000
    9.1747    0.5419    0.0000 O   0  0  0  0  0  0  0  0  0  0  0  0
   10.0568   -1.9996    0.0000 O   0  0  0  0  0  0  0  0  0  0  0  0
   11.8269   -1.0027    0.0000 O   0  0  0  0  0  0  0  0  0  0  0  0
   11.8427    1.0455    0.0000 O   0  0  0  0  0  0  0  0  0  0  0  0
   10.0689    2.0697    0.0000 O   0  0  0  0  0  0  0  0  0  0  0  0
    8.0659   -1.9655    0.0000 O   0  0  0  0  0  0  0  0  0  0  0  0
    9.0364   -3.6798    0.0000 O   0  0  0  0  0  0  0  0  0  0  0  0
   12.7103    0.4872    0.0000 O   0  0  0  0  0  0  0  0  0  0  0  0
   10.9825    2.5489    0.0000 O   0  0  0  0  0  0  0  0  0  0  0  0
    8.3368    2.0630    0.0000 O   0  0  0  0  0  0  0  0  0  0  0  0
    9.0659   -1.9655    0.0000 O   0  0  0  0  0  0  0  0  0  0  0  0
    9.5628   -6.3338    0.0000 O   0  0  0  0  0  0  0  0  0  0  0  0
    8.5690   -6.3338    0.0000 O   0  0  0  0  0  0  0  0  0  0  0  0
   12.6351   -4.5757    0.0000 O   0  0  0  0  0  0  0  0  0  0  0  0
    5.4966   -4.5757    0.0000 O   0  0  0  0  0  0  0  0  0  0  0  0
   11.6110   -6.3496    0.0000 O   0  0  0  0  0  0  0  0  0  0  0  0
    6.5208   -6.3496    0.0000 O   0  0  0  0  0  0  0  0  0  0  0  0
   16.1626   -0.5528    0.0000 O   0  0  0  0  0  0  0  0  0  0  0  0
   14.3959   -3.5326    0.0000 O   0  0  0  0  0  0  0  0  0  0  0  0
   13.5902    5.0388    0.0000 O   0  0  0  0  0  0  0  0  0  0  0  0
   15.3107    2.0322    0.0000 O   0  0  0  0  0  0  0  0  0  0  0  0
   16.1394   -2.5527    0.0000 O   0  0  0  0  0  0  0  0  0  0  0  0
    7.4573    5.5597    0.0000 O   0  0  0  0  0  0  0  0  0  0  0  0
   10.9214    5.5730    0.0000 O   0  0  0  0  0  0  0  0  0  0  0  0
   15.3184    4.0322    0.0000 O   0  0  0  0  0  0  0  0  0  0  0  0
    9.1855    6.5663    0.0000 O   0  0  0  0  0  0  0  0  0  0  0  0
    6.5033   -2.8475    0.0000 O   0  0  0  0  0  0  0  0  0  0  0  0
    5.5100   -1.1116    0.0000 O   0  0  0  0  0  0  0  0  0  0  0  0
    2.4967   -4.5641    0.0000 O   0  0  0  0  0  0  0  0  0  0  0  0
    3.5100   -1.1039    0.0000 O   0  0  0  0  0  0  0  0  0  0  0  0
    3.9933   -5.4359    0.0000 O   0  0  0  0  0  0  0  0  0  0  0  0
   10.0568   -0.9996    0.0000 C   0  0  1  0  0  0  0  0  0  0  0  0
   10.9668   -0.4927    0.0000 C   0  0  1  0  0  0  0  0  0  0  0  0
    9.1907   -0.4996    0.0000 C   0  0  1  0  0  0  0  0  0  0  0  0
   10.9748    0.5489    0.0000 C   0  0  2  0  0  0  0  0  0  0  0  0
   10.0727    1.0697    0.0000 C   0  0  1  0  0  0  0  0  0  0  0  0
    8.3247   -0.9996    0.0000 C   0  0  0  0  0  0  0  0  0  0  0  0
    9.5659   -2.8315    0.0000 C   0  0  0  0  0  0  0  0  0  0  0  0
   12.6987   -0.5128    0.0000 C   0  0  0  0  0  0  0  0  0  0  0  0
   11.8466    2.0455    0.0000 C   0  0  0  0  0  0  0  0  0  0  0  0
   10.0659   -3.6976    0.0000 C   0  0  0  0  0  0  0  0  0  0  0  0
    9.2009    2.5663    0.0000 C   0  0  0  0  0  0  0  0  0  0  0  0
    8.5659   -2.8315    0.0000 C   0  0  0  0  0  0  0  0  0  0  0  0
    9.5659   -4.5636    0.0000 C   0  0  0  0  0  0  0  0  0  0  0  0
    8.0659   -3.6976    0.0000 C   0  0  0  0  0  0  0  0  0  0  0  0
   13.5589   -1.0227    0.0000 C   0  0  0  0  0  0  0  0  0  0  0  0
    8.5659   -4.5636    0.0000 C   0  0  0  0  0  0  0  0  0  0  0  0
   12.7145    2.5422    0.0000 C   0  0  0  0  0  0  0  0  0  0  0  0
    9.1971    3.5663    0.0000 C   0  0  0  0  0  0  0  0  0  0  0  0
   11.1074   -3.6815    0.0000 C   0  0  0  0  0  0  0  0  0  0  0  0
   10.0727   -5.4736    0.0000 C   0  0  0  0  0  0  0  0  0  0  0  0
    8.0590   -5.4736    0.0000 C   0  0  0  0  0  0  0  0  0  0  0  0
    7.0244   -3.6815    0.0000 C   0  0  0  0  0  0  0  0  0  0  0  0
   13.5473   -2.0227    0.0000 C   0  0  0  0  0  0  0  0  0  0  0  0
   14.4306   -0.5328    0.0000 C   0  0  0  0  0  0  0  0  0  0  0  0
   11.6352   -4.5795    0.0000 C   0  0  0  0  0  0  0  0  0  0  0  0
   11.1143   -5.4816    0.0000 C   0  0  0  0  0  0  0  0  0  0  0  0
   13.5786    2.0388    0.0000 C   0  0  0  0  0  0  0  0  0  0  0  0
   12.7184    3.5422    0.0000 C   0  0  0  0  0  0  0  0  0  0  0  0
    6.4966   -4.5795    0.0000 C   0  0  0  0  0  0  0  0  0  0  0  0
    7.0174   -5.4816    0.0000 C   0  0  0  0  0  0  0  0  0  0  0  0
   10.0611    4.0697    0.0000 C   0  0  0  0  0  0  0  0  0  0  0  0
    8.3291    4.0630    0.0000 C   0  0  0  0  0  0  0  0  0  0  0  0
   15.2908   -1.0428    0.0000 C   0  0  0  0  0  0  0  0  0  0  0  0
   14.4075   -2.5326    0.0000 C   0  0  0  0  0  0  0  0  0  0  0  0
   13.5863    4.0388    0.0000 C   0  0  0  0  0  0  0  0  0  0  0  0
   14.4466    2.5355    0.0000 C   0  0  0  0  0  0  0  0  0  0  0  0
   15.2793   -2.0427    0.0000 C   0  0  0  0  0  0  0  0  0  0  0  0
    8.3253    5.0630    0.0000 C   0  0  0  0  0  0  0  0  0  0  0  0
   10.0573    5.0697    0.0000 C   0  0  0  0  0  0  0  0  0  0  0  0
   14.4504    3.5355    0.0000 C   0  0  0  0  0  0  0  0  0  0  0  0
    9.1893    5.5663    0.0000 C   0  0  0  0  0  0  0  0  0  0  0  0
    5.0000   -3.7077    0.0000 C   0  0  0  0  0  0  0  0  0  0  0  0
    4.0000   -3.7039    0.0000 C   0  0  0  0  0  0  0  0  0  0  0  0
    5.5033   -2.8436    0.0000 C   0  0  0  0  0  0  0  0  0  0  0  0
    3.5033   -2.8359    0.0000 C   0  0  0  0  0  0  0  0  0  0  0  0
    5.0066   -1.9757    0.0000 C   0  0  0  0  0  0  0  0  0  0  0  0
    4.0067   -1.9718    0.0000 C   0  0  0  0  0  0  0  0  0  0  0  0
    3.4966   -4.5680    0.0000 C   0  0  0  0  0  0  0  0  0  0  0  0
    2.0000   -3.6962    0.0000 C   0  0  0  0  0  0  0  0  0  0  0  0
   10.7896   -1.4302    0.0000 H   0  0  0  0  0  0  0  0  0  0  0  0
   11.5067   -0.1879    0.0000 H   0  0  0  0  0  0  0  0  0  0  0  0
    8.4514   -0.0803    0.0000 H   0  0  0  0  0  0  0  0  0  0  0  0
   11.5099    0.2358    0.0000 H   0  0  0  0  0  0  0  0  0  0  0  0
   10.6090    1.3807    0.0000 H   0  0  0  0  0  0  0  0  0  0  0  0
    8.1642   -0.4007    0.0000 H   0  0  0  0  0  0  0  0  0  0  0  0
    7.7047   -0.9996    0.0000 H   0  0  0  0  0  0  0  0  0  0  0  0
   11.4112   -3.1410    0.0000 H   0  0  0  0  0  0  0  0  0  0  0  0
    6.7206   -3.1410    0.0000 H   0  0  0  0  0  0  0  0  0  0  0  0
   13.0068   -2.3264    0.0000 H   0  0  0  0  0  0  0  0  0  0  0  0
   14.4378    0.0872    0.0000 H   0  0  0  0  0  0  0  0  0  0  0  0
   13.5762    1.4189    0.0000 H   0  0  0  0  0  0  0  0  0  0  0  0
   12.1827    3.8542    0.0000 H   0  0  0  0  0  0  0  0  0  0  0  0
   10.5993    3.7617    0.0000 H   0  0  0  0  0  0  0  0  0  0  0  0
    7.7934    3.7509    0.0000 H   0  0  0  0  0  0  0  0  0  0  0  0
    9.8665   -6.8742    0.0000 H   0  0  0  0  0  0  0  0  0  0  0  0
    8.2652   -6.8742    0.0000 H   0  0  0  0  0  0  0  0  0  0  0  0
   12.9431   -4.0375    0.0000 H   0  0  0  0  0  0  0  0  0  0  0  0
   12.2310   -6.3519    0.0000 H   0  0  0  0  0  0  0  0  0  0  0  0
    5.9008   -6.3519    0.0000 H   0  0  0  0  0  0  0  0  0  0  0  0
   16.6959   -0.8690    0.0000 H   0  0  0  0  0  0  0  0  0  0  0  0
   14.9293   -3.8488    0.0000 H   0  0  0  0  0  0  0  0  0  0  0  0
   14.1283    5.3468    0.0000 H   0  0  0  0  0  0  0  0  0  0  0  0
   15.8488    2.3401    0.0000 H   0  0  0  0  0  0  0  0  0  0  0  0
   16.6799   -2.2489    0.0000 H   0  0  0  0  0  0  0  0  0  0  0  0
    6.9216    5.2476    0.0000 H   0  0  0  0  0  0  0  0  0  0  0  0
   10.9190    6.1930    0.0000 H   0  0  0  0  0  0  0  0  0  0  0  0
   15.3208    4.6522    0.0000 H   0  0  0  0  0  0  0  0  0  0  0  0
    8.6474    6.8742    0.0000 H   0  0  0  0  0  0  0  0  0  0  0  0
    2.8833   -2.8335    0.0000 H   0  0  0  0  0  0  0  0  0  0  0  0
    6.8154   -2.3118    0.0000 H   0  0  0  0  0  0  0  0  0  0  0  0
    5.2021   -0.5735    0.0000 H   0  0  0  0  0  0  0  0  0  0  0  0
    2.8900   -1.1015    0.0000 H   0  0  0  0  0  0  0  0  0  0  0  0
    2.5381   -3.3882    0.0000 H   0  0  0  0  0  0  0  0  0  0  0  0
    1.6921   -3.1580    0.0000 H   0  0  0  0  0  0  0  0  0  0  0  0
    1.4619   -4.0041    0.0000 H   0  0  0  0  0  0  0  0  0  0  0  0
  1 34  1  0  0  0  0
  1 36  1  0  0  0  0
  2 32  1  0  0  0  0
  2 38  1  0  0  0  0
 33  3  1  1  0  0  0
  3 39  1  0  0  0  0
 35  4  1  6  0  0  0
  4 40  1  0  0  0  0
 36  5  1  1  0  0  0
  5 42  1  0  0  0  0
  6 37  1  0  0  0  0
  6 43  1  0  0  0  0
  7 38  2  0  0  0  0
  8 39  2  0  0  0  0
  9 40  2  0  0  0  0
 10 42  2  0  0  0  0
 11 43  2  0  0  0  0
 12 51  1  0  0  0  0
 12 96  1  0  0  0  0
 13 52  1  0  0  0  0
 13 97  1  0  0  0  0
 14 56  1  0  0  0  0
 14 98  1  0  0  0  0
 15 60  1  0  0  0  0
 15 73  1  0  0  0  0
 16 57  1  0  0  0  0
 16 99  1  0  0  0  0
 17 61  1  0  0  0  0
 17100  1  0  0  0  0
 18 64  1  0  0  0  0
 18101  1  0  0  0  0
 19 65  1  0  0  0  0
 19102  1  0  0  0  0
 20 66  1  0  0  0  0
 20103  1  0  0  0  0
 21 67  1  0  0  0  0
 21104  1  0  0  0  0
 22 68  1  0  0  0  0
 22105  1  0  0  0  0
 23 69  1  0  0  0  0
 23106  1  0  0  0  0
 24 70  1  0  0  0  0
 24107  1  0  0  0  0
 25 71  1  0  0  0  0
 25108  1  0  0  0  0
 26 72  1  0  0  0  0
 26109  1  0  0  0  0
 27 75  1  0  0  0  0
 27111  1  0  0  0  0
 28 77  1  0  0  0  0
 28112  1  0  0  0  0
 29 79  1  0  0  0  0
 29 80  1  0  0  0  0
 30 78  1  0  0  0  0
 30113  1  0  0  0  0
 31 79  2  0  0  0  0
 32 33  1  0  0  0  0
 32 34  1  0  0  0  0
 32 81  1  1  0  0  0
 33 35  1  0  0  0  0
 33 82  1  0  0  0  0
 34 37  1  0  0  0  0
 34 83  1  6  0  0  0
 35 36  1  0  0  0  0
 35 84  1  0  0  0  0
 36 85  1  0  0  0  0
 37 86  1  0  0  0  0
 37 87  1  0  0  0  0
 38 41  1  0  0  0  0
 39 46  1  0  0  0  0
 40 48  1  0  0  0  0
 41 44  1  0  0  0  0
 41 50  2  0  0  0  0
 42 49  1  0  0  0  0
 43 45  1  0  0  0  0
 44 47  1  0  0  0  0
 44 51  2  0  0  0  0
 45 47  1  0  0  0  0
 45 53  2  0  0  0  0
 46 54  2  0  0  0  0
 46 55  1  0  0  0  0
 47 52  2  0  0  0  0
 48 58  2  0  0  0  0
 48 59  1  0  0  0  0
 49 62  2  0  0  0  0
 49 63  1  0  0  0  0
 50 56  1  0  0  0  0
 50 88  1  0  0  0  0
 51 57  1  0  0  0  0
 52 61  1  0  0  0  0
 53 60  1  0  0  0  0
 53 89  1  0  0  0  0
 54 65  1  0  0  0  0
 54 90  1  0  0  0  0
 55 64  2  0  0  0  0
 55 91  1  0  0  0  0
 56 57  2  0  0  0  0
 58 67  1  0  0  0  0
 58 92  1  0  0  0  0
 59 66  2  0  0  0  0
 59 93  1  0  0  0  0
 60 61  2  0  0  0  0
 62 70  1  0  0  0  0
 62 94  1  0  0  0  0
 63 69  2  0  0  0  0
 63 95  1  0  0  0  0
 64 68  1  0  0  0  0
 65 68  2  0  0  0  0
 66 71  1  0  0  0  0
 67 71  2  0  0  0  0
 69 72  1  0  0  0  0
 70 72  2  0  0  0  0
 73 74  1  0  0  0  0
 73 75  2  0  0  0  0
 74 76  2  0  0  0  0
 74 79  1  0  0  0  0
 75 77  1  0  0  0  0
 76 78  1  0  0  0  0
 76110  1  0  0  0  0
 77 78  2  0  0  0  0
 80114  1  0  0  0  0
 80115  1  0  0  0  0
 80116  1  0  0  0  0
M  END
> <PUBCHEM_COMPOUND_CID>
102045132

> <PUBCHEM_COMPOUND_CANONICALIZED>
1

> <PUBCHEM_CACTVS_COMPLEXITY>
2190

> <PUBCHEM_CACTVS_HBOND_ACCEPTOR>
31

> <PUBCHEM_CACTVS_HBOND_DONOR>
17

> <PUBCHEM_CACTVS_ROTATABLE_BOND>
13

> <PUBCHEM_CACTVS_SUBSKEYS>
AAADcfB8PgAAAAAAAAAAAAAAAAAAAAAAAAA0YMGDAAAAAAABVAAAGgAACAAADBSwmAMyDoAABgCIAiDSCAACCAAkIAAAiAEGiMgdJzaGNRqieWOl4BUPuYfK7PzOoQABCAAYQABCAAIQADCAAAAAAAAAAA==

> <PUBCHEM_IUPAC_OPENEYE_NAME>
methyl 3,4,5-trihydroxy-2-[[(10R,11S,12R,13S,15R)-3,4,5,22,23-pentahydroxy-8,18-dioxo-11,12,13-tris[(3,4,5-trihydroxybenzoyl)oxy]-9,14,17-trioxatetracyclo[17.4.0.02,7.010,15]tricosa-1(23),2,4,6,19,21-hexaen-21-yl]oxy]benzoate

> <PUBCHEM_IUPAC_CAS_NAME>
3,4,5-trihydroxy-2-[[(10R,11S,12R,13S,15R)-3,4,5,22,23-pentahydroxy-8,18-dioxo-11,12,13-tris[oxo-(3,4,5-trihydroxyphenyl)methoxy]-9,14,17-trioxatetracyclo[17.4.0.02,7.010,15]tricosa-1(23),2,4,6,19,21-hexaen-21-yl]oxy]benzoic acid methyl ester

> <PUBCHEM_IUPAC_NAME_MARKUP>
methyl 3,4,5-trihydroxy-2-[[(10<I>R</I>,11<I>S</I>,12<I>R</I>,13<I>S</I>,15<I>R</I>)-3,4,5,22,23-pentahydroxy-8,18-dioxo-11,12,13-tris[(3,4,5-trihydroxybenzoyl)oxy]-9,14,17-trioxatetracyclo[17.4.0.0<SUP>2,7</SUP>.0<SUP>10,15</SUP>]tricosa-1(23),2,4,6,19,21-hexaen-21-yl]oxy]benzoate

> <PUBCHEM_IUPAC_NAME>
methyl 3,4,5-trihydroxy-2-[[(10R,11S,12R,13S,15R)-3,4,5,22,23-pentahydroxy-8,18-dioxo-11,12,13-tris[(3,4,5-trihydroxybenzoyl)oxy]-9,14,17-trioxatetracyclo[17.4.0.02,7.010,15]tricosa-1(23),2,4,6,19,21-hexaen-21-yl]oxy]benzoate

> <PUBCHEM_IUPAC_SYSTEMATIC_NAME>
methyl 3,4,5-tris(oxidanyl)-2-[[(10R,11S,12R,13S,15R)-3,4,5,22,23-pentakis(oxidanyl)-8,18-bis(oxidanylidene)-11,12,13-tris[[3,4,5-tris(oxidanyl)phenyl]carbonyloxy]-9,14,17-trioxatetracyclo[17.4.0.02,7.010,15]tricosa-1(23),2,4,6,19,21-hexaen-21-yl]oxy]benzoate

> <PUBCHEM_IUPAC_TRADITIONAL_NAME>
3,4,5-trihydroxy-2-[[(10R,11S,12R,13S,15R)-11,12,13-trigalloyloxy-3,4,5,22,23-pentahydroxy-8,18-diketo-9,14,17-trioxatetracyclo[17.4.0.02,7.010,15]tricosa-1(23),2,4,6,19,21-hexaen-21-yl]oxy]benzoic acid methyl ester

> <PUBCHEM_IUPAC_INCHI>
InChI=1S/C49H36O31/c1-73-46(70)17-9-25(57)34(62)38(66)39(17)75-26-10-16-29(37(65)35(26)63)28-15(8-24(56)33(61)36(28)64)48(72)77-40-27(11-74-47(16)71)76-49(80-45(69)14-6-22(54)32(60)23(55)7-14)42(79-44(68)13-4-20(52)31(59)21(53)5-13)41(40)78-43(67)12-2-18(50)30(58)19(51)3-12/h2-10,27,40-42,49-66H,11H2,1H3/t27-,40-,41+,42-,49+/m1/s1

> <PUBCHEM_IUPAC_INCHIKEY>
FZNDXZNEZJRBJW-HTEDMGIQSA-N

> <PUBCHEM_XLOGP3_AA>
3.1

> <PUBCHEM_EXACT_MASS>
1120.124054

> <PUBCHEM_MOLECULAR_FORMULA>
C49H36O31

> <PUBCHEM_MOLECULAR_WEIGHT>
1120.8

> <PUBCHEM_OPENEYE_CAN_SMILES>
COC(=O)C1=CC(=C(C(=C1OC2=C(C(=C3C(=C2)C(=O)OCC4C(C(C(C(O4)OC(=O)C5=CC(=C(C(=C5)O)O)O)OC(=O)C6=CC(=C(C(=C6)O)O)O)OC(=O)C7=CC(=C(C(=C7)O)O)O)OC(=O)C8=CC(=C(C(=C83)O)O)O)O)O)O)O)O

> <PUBCHEM_OPENEYE_ISO_SMILES>
COC(=O)C1=CC(=C(C(=C1OC2=C(C(=C3C(=C2)C(=O)OC[C@@H]4[C@H]([C@@H]([C@H]([C@@H](O4)OC(=O)C5=CC(=C(C(=C5)O)O)O)OC(=O)C6=CC(=C(C(=C6)O)O)O)OC(=O)C7=CC(=C(C(=C7)O)O)O)OC(=O)C8=CC(=C(C(=C83)O)O)O)O)O)O)O)O

> <PUBCHEM_CACTVS_TPSA>
520

> <PUBCHEM_MONOISOTOPIC_WEIGHT>
1120.124054

> <PUBCHEM_TOTAL_CHARGE>
0

> <PUBCHEM_HEAVY_ATOM_COUNT>
80

> <PUBCHEM_ATOM_DEF_STEREO_COUNT>
5

> <PUBCHEM_ATOM_UDEF_STEREO_COUNT>
0

> <PUBCHEM_BOND_DEF_STEREO_COUNT>
0

> <PUBCHEM_BOND_UDEF_STEREO_COUNT>
0

> <PUBCHEM_ISOTOPIC_ATOM_COUNT>
0

> <PUBCHEM_COMPONENT_COUNT>
1

> <PUBCHEM_CACTVS_TAUTO_COUNT>
-1

> <PUBCHEM_COORDINATE_TYPE>
1
5
255

> <PUBCHEM_BONDANNOTATIONS>
33  3  5
32  81  5
34  83  6
35  4  6
41  44  8
41  50  8
44  51  8
45  47  8
45  53  8
46  54  8
46  55  8
47  52  8
48  58  8
48  59  8
49  62  8
49  63  8
36  5  5
50  56  8
51  57  8
52  61  8
53  60  8
54  65  8
55  64  8
56  57  8
58  67  8
59  66  8
60  61  8
62  70  8
63  69  8
64  68  8
65  68  8
66  71  8
67  71  8
69  72  8
70  72  8
73  74  8
73  75  8
74  76  8
75  77  8
76  78  8
77  78  8

$$$$
