131751851
  -OEChem-09122003192D

 73 76  0     1  0  0  0  0  0999 V2000
    7.0628    2.3359    0.0000 O   0  0  0  0  0  0  0  0  0  0  0  0
    2.5357   -2.2165    0.0000 O   0  0  0  0  0  0  0  0  0  0  0  0
    9.1857   -1.4194    0.0000 O   0  0  0  0  0  0  0  0  0  0  0  0
    5.3307    1.3359    0.0000 O   0  0  0  0  0  0  0  0  0  0  0  0
    7.9506   -2.1956    0.0000 O   0  0  0  0  0  0  0  0  0  0  0  0
    4.3500   -3.9943    0.0000 O   0  0  0  0  0  0  0  0  0  0  0  0
   11.7640    4.4046    0.0000 O   0  0  0  0  0  0  0  0  0  0  0  0
   12.1212    2.7098    0.0000 O   0  0  0  0  0  0  0  0  0  0  0  0
    7.9288    0.8359    0.0000 C   0  0  3  0  0  0  0  0  0  0  0  0
    7.9288   -0.1641    0.0000 C   0  0  3  0  0  0  0  0  0  0  0  0
    5.2868   -0.6710    0.0000 C   0  0  3  0  0  0  0  0  0  0  0  0
    5.2787   -1.7126    0.0000 C   0  0  3  0  0  0  0  0  0  0  0  0
    8.8750    1.1406    0.0000 C   0  0  3  0  0  0  0  0  0  0  0  0
    7.0628   -0.6641    0.0000 C   0  0  0  0  0  0  0  0  0  0  0  0
    6.1968   -0.1641    0.0000 C   0  0  0  0  0  0  0  0  0  0  0  0
    4.3433   -2.2623    0.0000 C   0  0  3  0  0  0  0  0  0  0  0  0
    7.0628    1.3359    0.0000 C   0  0  3  0  0  0  0  0  0  0  0  0
    9.4586    0.3359    0.0000 C   0  0  0  0  0  0  0  0  0  0  0  0
    4.3599   -0.1069    0.0000 C   0  0  0  0  0  0  0  0  0  0  0  0
    8.8750   -0.4689    0.0000 C   0  0  0  0  0  0  0  0  0  0  0  0
    6.1808   -2.2334    0.0000 C   0  0  0  0  0  0  0  0  0  0  0  0
    6.1968    0.8359    0.0000 C   0  0  0  0  0  0  0  0  0  0  0  0
    3.4037   -1.7198    0.0000 C   0  0  3  0  0  0  0  0  0  0  0  0
    9.1857    2.0911    0.0000 C   0  0  3  0  0  0  0  0  0  0  0  0
    7.9288    1.8359    0.0000 C   0  0  0  0  0  0  0  0  0  0  0  0
    7.0789   -1.7056    0.0000 C   0  0  0  0  0  0  0  0  0  0  0  0
    3.4120   -0.6348    0.0000 C   0  0  0  0  0  0  0  0  0  0  0  0
    7.9288   -1.1641    0.0000 C   0  0  0  0  0  0  0  0  0  0  0  0
    5.2945    0.3290    0.0000 C   0  0  0  0  0  0  0  0  0  0  0  0
    3.8467   -3.1302    0.0000 C   0  0  0  0  0  0  0  0  0  0  0  0
    4.8466   -3.1264    0.0000 C   0  0  0  0  0  0  0  0  0  0  0  0
   10.1642    2.2973    0.0000 C   0  0  0  0  0  0  0  0  0  0  0  0
    8.5179    2.8354    0.0000 C   0  0  0  0  0  0  0  0  0  0  0  0
   10.4749    3.2479    0.0000 C   0  0  0  0  0  0  0  0  0  0  0  0
   11.4534    3.4541    0.0000 C   0  0  0  0  0  0  0  0  0  0  0  0
    5.2811   -2.3326    0.0000 H   0  0  0  0  0  0  0  0  0  0  0  0
    9.4875    1.2368    0.0000 H   0  0  0  0  0  0  0  0  0  0  0  0
    6.5259    1.6459    0.0000 H   0  0  0  0  0  0  0  0  0  0  0  0
    9.9195   -0.0789    0.0000 H   0  0  0  0  0  0  0  0  0  0  0  0
    9.9195    0.7506    0.0000 H   0  0  0  0  0  0  0  0  0  0  0  0
    4.7681    0.3598    0.0000 H   0  0  0  0  0  0  0  0  0  0  0  0
    3.9700    0.3751    0.0000 H   0  0  0  0  0  0  0  0  0  0  0  0
    5.7835   -2.7094    0.0000 H   0  0  0  0  0  0  0  0  0  0  0  0
    6.5818   -2.7063    0.0000 H   0  0  0  0  0  0  0  0  0  0  0  0
    3.4025   -2.3398    0.0000 H   0  0  0  0  0  0  0  0  0  0  0  0
    9.3783    2.6804    0.0000 H   0  0  0  0  0  0  0  0  0  0  0  0
    8.5488    1.8359    0.0000 H   0  0  0  0  0  0  0  0  0  0  0  0
    7.9288    2.4559    0.0000 H   0  0  0  0  0  0  0  0  0  0  0  0
    7.3088    1.8359    0.0000 H   0  0  0  0  0  0  0  0  0  0  0  0
    3.2075   -0.0496    0.0000 H   0  0  0  0  0  0  0  0  0  0  0  0
    2.8004   -0.7362    0.0000 H   0  0  0  0  0  0  0  0  0  0  0  0
    7.3088   -1.1641    0.0000 H   0  0  0  0  0  0  0  0  0  0  0  0
    7.9288   -1.7841    0.0000 H   0  0  0  0  0  0  0  0  0  0  0  0
    8.5488   -1.1641    0.0000 H   0  0  0  0  0  0  0  0  0  0  0  0
    5.9145    0.3242    0.0000 H   0  0  0  0  0  0  0  0  0  0  0  0
    5.2993    0.9490    0.0000 H   0  0  0  0  0  0  0  0  0  0  0  0
    4.6745    0.3338    0.0000 H   0  0  0  0  0  0  0  0  0  0  0  0
    3.3702   -2.7336    0.0000 H   0  0  0  0  0  0  0  0  0  0  0  0
    3.3732   -3.5306    0.0000 H   0  0  0  0  0  0  0  0  0  0  0  0
    4.3109   -3.4385    0.0000 H   0  0  0  0  0  0  0  0  0  0  0  0
    5.1587   -3.6621    0.0000 H   0  0  0  0  0  0  0  0  0  0  0  0
    5.3824   -2.8143    0.0000 H   0  0  0  0  0  0  0  0  0  0  0  0
   10.1848    1.6777    0.0000 H   0  0  0  0  0  0  0  0  0  0  0  0
   10.7780    2.2100    0.0000 H   0  0  0  0  0  0  0  0  0  0  0  0
    8.9793    3.2495    0.0000 H   0  0  0  0  0  0  0  0  0  0  0  0
    8.1038    3.2969    0.0000 H   0  0  0  0  0  0  0  0  0  0  0  0
    8.0564    2.4214    0.0000 H   0  0  0  0  0  0  0  0  0  0  0  0
    6.5259    2.6459    0.0000 H   0  0  0  0  0  0  0  0  0  0  0  0
    2.0000   -1.9044    0.0000 H   0  0  0  0  0  0  0  0  0  0  0  0
   10.4543    3.8675    0.0000 H   0  0  0  0  0  0  0  0  0  0  0  0
    9.8611    3.3352    0.0000 H   0  0  0  0  0  0  0  0  0  0  0  0
    4.0421   -4.5325    0.0000 H   0  0  0  0  0  0  0  0  0  0  0  0
   12.3707    4.5325    0.0000 H   0  0  0  0  0  0  0  0  0  0  0  0
  1 17  1  0  0  0  0
  1 68  1  0  0  0  0
  2 23  1  0  0  0  0
  2 69  1  0  0  0  0
  3 20  2  0  0  0  0
  4 22  2  0  0  0  0
  5 26  2  0  0  0  0
  6 30  1  0  0  0  0
  6 72  1  0  0  0  0
  7 35  1  0  0  0  0
  7 73  1  0  0  0  0
  8 35  2  0  0  0  0
  9 10  1  0  0  0  0
  9 13  1  0  0  0  0
  9 17  1  0  0  0  0
  9 25  1  0  0  0  0
 10 14  1  0  0  0  0
 10 20  1  0  0  0  0
 10 28  1  0  0  0  0
 11 12  1  0  0  0  0
 11 15  1  0  0  0  0
 11 19  1  0  0  0  0
 11 29  1  0  0  0  0
 12 16  1  0  0  0  0
 12 21  1  0  0  0  0
 12 36  1  0  0  0  0
 13 18  1  0  0  0  0
 13 24  1  0  0  0  0
 13 37  1  0  0  0  0
 14 15  2  0  0  0  0
 14 26  1  0  0  0  0
 15 22  1  0  0  0  0
 16 23  1  0  0  0  0
 16 30  1  0  0  0  0
 16 31  1  0  0  0  0
 17 22  1  0  0  0  0
 17 38  1  0  0  0  0
 18 20  1  0  0  0  0
 18 39  1  0  0  0  0
 18 40  1  0  0  0  0
 19 27  1  0  0  0  0
 19 41  1  0  0  0  0
 19 42  1  0  0  0  0
 21 26  1  0  0  0  0
 21 43  1  0  0  0  0
 21 44  1  0  0  0  0
 23 27  1  0  0  0  0
 23 45  1  0  0  0  0
 24 32  1  0  0  0  0
 24 33  1  0  0  0  0
 24 46  1  0  0  0  0
 25 47  1  0  0  0  0
 25 48  1  0  0  0  0
 25 49  1  0  0  0  0
 27 50  1  0  0  0  0
 27 51  1  0  0  0  0
 28 52  1  0  0  0  0
 28 53  1  0  0  0  0
 28 54  1  0  0  0  0
 29 55  1  0  0  0  0
 29 56  1  0  0  0  0
 29 57  1  0  0  0  0
 30 58  1  0  0  0  0
 30 59  1  0  0  0  0
 31 60  1  0  0  0  0
 31 61  1  0  0  0  0
 31 62  1  0  0  0  0
 32 34  1  0  0  0  0
 32 63  1  0  0  0  0
 32 64  1  0  0  0  0
 33 65  1  0  0  0  0
 33 66  1  0  0  0  0
 33 67  1  0  0  0  0
 34 35  1  0  0  0  0
 34 70  1  0  0  0  0
 34 71  1  0  0  0  0
M  END
> <PUBCHEM_COMPOUND_CID>
131751851

> <PUBCHEM_COMPOUND_CANONICALIZED>
1

> <PUBCHEM_CACTVS_COMPLEXITY>
1030

> <PUBCHEM_CACTVS_HBOND_ACCEPTOR>
8

> <PUBCHEM_CACTVS_HBOND_DONOR>
4

> <PUBCHEM_CACTVS_ROTATABLE_BOND>
5

> <PUBCHEM_CACTVS_SUBSKEYS>
AAADcfB4PAAAAAAAAAAAAAAAAAAAAYAAAAAwQIAAAAAAAEDAAAAAGgAACAAADxSggAICCAAAAgCIAoDQCAIAAAAgAAAACAFAAEgAEBIAAAAAQAAFwAAIAQOLzvDvgAAAAAAAAABAAAYAADAAAQAACAAAAA==

> <PUBCHEM_IUPAC_OPENEYE_NAME>
4-[3,12-dihydroxy-4-(hydroxymethyl)-4,10,13,14-tetramethyl-7,11,15-trioxo-1,2,3,5,6,12,16,17-octahydrocyclopenta[a]phenanthren-17-yl]pentanoic acid

> <PUBCHEM_IUPAC_CAS_NAME>
4-[3,12-dihydroxy-4-(hydroxymethyl)-4,10,13,14-tetramethyl-7,11,15-trioxo-1,2,3,5,6,12,16,17-octahydrocyclopenta[a]phenanthren-17-yl]pentanoic acid

> <PUBCHEM_IUPAC_NAME_MARKUP>
4-[3,12-dihydroxy-4-(hydroxymethyl)-4,10,13,14-tetramethyl-7,11,15-trioxo-1,2,3,5,6,12,16,17-octahydrocyclopenta[a]phenanthren-17-yl]pentanoic acid

> <PUBCHEM_IUPAC_NAME>
4-[3,12-dihydroxy-4-(hydroxymethyl)-4,10,13,14-tetramethyl-7,11,15-trioxo-1,2,3,5,6,12,16,17-octahydrocyclopenta[a]phenanthren-17-yl]pentanoic acid

> <PUBCHEM_IUPAC_SYSTEMATIC_NAME>
4-[4-(hydroxymethyl)-4,10,13,14-tetramethyl-3,12-bis(oxidanyl)-7,11,15-tris(oxidanylidene)-1,2,3,5,6,12,16,17-octahydrocyclopenta[a]phenanthren-17-yl]pentanoic acid

> <PUBCHEM_IUPAC_TRADITIONAL_NAME>
4-(3,12-dihydroxy-7,11,15-triketo-4,10,13,14-tetramethyl-4-methylol-1,2,3,5,6,12,16,17-octahydrocyclopenta[a]phenanthren-17-yl)valeric acid

> <PUBCHEM_IUPAC_INCHI>
InChI=1S/C27H38O8/c1-13(6-7-19(32)33)14-10-18(31)27(5)20-15(29)11-16-24(2,9-8-17(30)25(16,3)12-28)21(20)22(34)23(35)26(14,27)4/h13-14,16-17,23,28,30,35H,6-12H2,1-5H3,(H,32,33)

> <PUBCHEM_IUPAC_INCHIKEY>
HAVMVUFJSIMVDG-UHFFFAOYSA-N

> <PUBCHEM_XLOGP3_AA>
1.6

> <PUBCHEM_EXACT_MASS>
490.256668

> <PUBCHEM_MOLECULAR_FORMULA>
C27H38O8

> <PUBCHEM_MOLECULAR_WEIGHT>
490.6

> <PUBCHEM_OPENEYE_CAN_SMILES>
CC(CCC(=O)O)C1CC(=O)C2(C1(C(C(=O)C3=C2C(=O)CC4C3(CCC(C4(C)CO)O)C)O)C)C

> <PUBCHEM_OPENEYE_ISO_SMILES>
CC(CCC(=O)O)C1CC(=O)C2(C1(C(C(=O)C3=C2C(=O)CC4C3(CCC(C4(C)CO)O)C)O)C)C

> <PUBCHEM_CACTVS_TPSA>
149

> <PUBCHEM_MONOISOTOPIC_WEIGHT>
490.256668

> <PUBCHEM_TOTAL_CHARGE>
0

> <PUBCHEM_HEAVY_ATOM_COUNT>
35

> <PUBCHEM_ATOM_DEF_STEREO_COUNT>
0

> <PUBCHEM_ATOM_UDEF_STEREO_COUNT>
9

> <PUBCHEM_BOND_DEF_STEREO_COUNT>
0

> <PUBCHEM_BOND_UDEF_STEREO_COUNT>
0

> <PUBCHEM_ISOTOPIC_ATOM_COUNT>
0

> <PUBCHEM_COMPONENT_COUNT>
1

> <PUBCHEM_CACTVS_TAUTO_COUNT>
-1

> <PUBCHEM_COORDINATE_TYPE>
1
5
255

> <PUBCHEM_BONDANNOTATIONS>
17  1  3
10  28  3
11  29  3
12  21  3
13  18  3
16  31  3
23  2  3
24  33  3
9  25  3

$$$$
