14109400
  -OEChem-09122006112D

 83 86  0     1  0  0  0  0  0999 V2000
    9.1857   -1.9978    0.0000 O   0  0  0  0  0  0  0  0  0  0  0  0
    2.5357   -2.7948    0.0000 O   0  0  0  0  0  0  0  0  0  0  0  0
    5.3307    0.7575    0.0000 O   0  0  0  0  0  0  0  0  0  0  0  0
    4.3500   -4.5727    0.0000 O   0  0  0  0  0  0  0  0  0  0  0  0
    9.8070    3.4138    0.0000 O   0  0  0  0  0  0  0  0  0  0  0  0
   13.0532    4.9830    0.0000 O   0  0  0  0  0  0  0  0  0  0  0  0
   13.4104    3.2882    0.0000 O   0  0  0  0  0  0  0  0  0  0  0  0
    7.9288   -0.7425    0.0000 C   0  0  3  0  0  0  0  0  0  0  0  0
    7.9288    0.2575    0.0000 C   0  0  3  0  0  0  0  0  0  0  0  0
    8.8750    0.5622    0.0000 C   0  0  3  0  0  0  0  0  0  0  0  0
    5.2868   -1.2493    0.0000 C   0  0  3  0  0  0  0  0  0  0  0  0
    7.0628   -1.2425    0.0000 C   0  0  0  0  0  0  0  0  0  0  0  0
    8.8750   -1.0472    0.0000 C   0  0  3  0  0  0  0  0  0  0  0  0
    5.2787   -2.2909    0.0000 C   0  0  3  0  0  0  0  0  0  0  0  0
    6.1968   -0.7425    0.0000 C   0  0  0  0  0  0  0  0  0  0  0  0
    9.4586   -0.2425    0.0000 C   0  0  0  0  0  0  0  0  0  0  0  0
    7.0628    0.7575    0.0000 C   0  0  0  0  0  0  0  0  0  0  0  0
    4.3433   -2.8407    0.0000 C   0  0  3  0  0  0  0  0  0  0  0  0
    7.0789   -2.2840    0.0000 C   0  0  0  0  0  0  0  0  0  0  0  0
    6.1808   -2.8118    0.0000 C   0  0  0  0  0  0  0  0  0  0  0  0
    4.3599   -0.6853    0.0000 C   0  0  0  0  0  0  0  0  0  0  0  0
    9.1857    1.5128    0.0000 C   0  0  3  0  0  0  0  0  0  0  0  0
    7.9288   -1.7425    0.0000 C   0  0  0  0  0  0  0  0  0  0  0  0
    7.9288    1.2575    0.0000 C   0  0  0  0  0  0  0  0  0  0  0  0
    6.1968    0.2575    0.0000 C   0  0  0  0  0  0  0  0  0  0  0  0
    3.4037   -2.2982    0.0000 C   0  0  3  0  0  0  0  0  0  0  0  0
    3.4120   -1.2132    0.0000 C   0  0  0  0  0  0  0  0  0  0  0  0
    5.2945   -0.2494    0.0000 C   0  0  0  0  0  0  0  0  0  0  0  0
    3.8467   -3.7086    0.0000 C   0  0  0  0  0  0  0  0  0  0  0  0
    4.8466   -3.7048    0.0000 C   0  0  0  0  0  0  0  0  0  0  0  0
   10.1642    1.7190    0.0000 C   0  0  0  0  0  0  0  0  0  0  0  0
    8.5179    2.2571    0.0000 C   0  0  0  0  0  0  0  0  0  0  0  0
   10.4749    2.6695    0.0000 C   0  0  0  0  0  0  0  0  0  0  0  0
   11.4534    2.8757    0.0000 C   0  0  0  0  0  0  0  0  0  0  0  0
   11.7640    3.8262    0.0000 C   0  0  3  0  0  0  0  0  0  0  0  0
   11.0962    4.5705    0.0000 C   0  0  0  0  0  0  0  0  0  0  0  0
   12.7425    4.0324    0.0000 C   0  0  0  0  0  0  0  0  0  0  0  0
    9.4875    0.6584    0.0000 H   0  0  0  0  0  0  0  0  0  0  0  0
    5.2811   -2.9109    0.0000 H   0  0  0  0  0  0  0  0  0  0  0  0
    9.4875   -1.1434    0.0000 H   0  0  0  0  0  0  0  0  0  0  0  0
    9.9195   -0.6572    0.0000 H   0  0  0  0  0  0  0  0  0  0  0  0
    9.9195    0.1722    0.0000 H   0  0  0  0  0  0  0  0  0  0  0  0
    7.4613    1.2324    0.0000 H   0  0  0  0  0  0  0  0  0  0  0  0
    6.6643    1.2324    0.0000 H   0  0  0  0  0  0  0  0  0  0  0  0
    7.2969   -2.8644    0.0000 H   0  0  0  0  0  0  0  0  0  0  0  0
    7.6880   -2.1685    0.0000 H   0  0  0  0  0  0  0  0  0  0  0  0
    5.7835   -3.2877    0.0000 H   0  0  0  0  0  0  0  0  0  0  0  0
    6.5818   -3.2846    0.0000 H   0  0  0  0  0  0  0  0  0  0  0  0
    4.7681   -0.2186    0.0000 H   0  0  0  0  0  0  0  0  0  0  0  0
    3.9700   -0.2032    0.0000 H   0  0  0  0  0  0  0  0  0  0  0  0
    9.3783    2.1021    0.0000 H   0  0  0  0  0  0  0  0  0  0  0  0
    7.3088   -1.7425    0.0000 H   0  0  0  0  0  0  0  0  0  0  0  0
    7.9288   -2.3625    0.0000 H   0  0  0  0  0  0  0  0  0  0  0  0
    8.5488   -1.7425    0.0000 H   0  0  0  0  0  0  0  0  0  0  0  0
    8.5488    1.2575    0.0000 H   0  0  0  0  0  0  0  0  0  0  0  0
    7.9288    1.8775    0.0000 H   0  0  0  0  0  0  0  0  0  0  0  0
    7.3088    1.2575    0.0000 H   0  0  0  0  0  0  0  0  0  0  0  0
    2.8686   -1.9851    0.0000 H   0  0  0  0  0  0  0  0  0  0  0  0
    3.2075   -0.6279    0.0000 H   0  0  0  0  0  0  0  0  0  0  0  0
    2.8004   -1.3146    0.0000 H   0  0  0  0  0  0  0  0  0  0  0  0
    5.9145   -0.2542    0.0000 H   0  0  0  0  0  0  0  0  0  0  0  0
    5.2993    0.3706    0.0000 H   0  0  0  0  0  0  0  0  0  0  0  0
    4.6745   -0.2446    0.0000 H   0  0  0  0  0  0  0  0  0  0  0  0
    3.3702   -3.3119    0.0000 H   0  0  0  0  0  0  0  0  0  0  0  0
    3.3732   -4.1090    0.0000 H   0  0  0  0  0  0  0  0  0  0  0  0
    4.3109   -4.0168    0.0000 H   0  0  0  0  0  0  0  0  0  0  0  0
    5.1587   -4.2405    0.0000 H   0  0  0  0  0  0  0  0  0  0  0  0
    5.3824   -3.3927    0.0000 H   0  0  0  0  0  0  0  0  0  0  0  0
   10.1848    1.0993    0.0000 H   0  0  0  0  0  0  0  0  0  0  0  0
   10.7780    1.6316    0.0000 H   0  0  0  0  0  0  0  0  0  0  0  0
    9.7924   -2.1256    0.0000 H   0  0  0  0  0  0  0  0  0  0  0  0
    8.9793    2.6711    0.0000 H   0  0  0  0  0  0  0  0  0  0  0  0
    8.1038    2.7185    0.0000 H   0  0  0  0  0  0  0  0  0  0  0  0
    8.0564    1.8430    0.0000 H   0  0  0  0  0  0  0  0  0  0  0  0
    2.0000   -2.4828    0.0000 H   0  0  0  0  0  0  0  0  0  0  0  0
    4.0421   -5.1108    0.0000 H   0  0  0  0  0  0  0  0  0  0  0  0
   11.4739    2.2561    0.0000 H   0  0  0  0  0  0  0  0  0  0  0  0
   12.0672    2.7884    0.0000 H   0  0  0  0  0  0  0  0  0  0  0  0
   11.1574    3.6984    0.0000 H   0  0  0  0  0  0  0  0  0  0  0  0
   11.5577    4.9846    0.0000 H   0  0  0  0  0  0  0  0  0  0  0  0
   10.6821    5.0320    0.0000 H   0  0  0  0  0  0  0  0  0  0  0  0
   10.6347    4.1565    0.0000 H   0  0  0  0  0  0  0  0  0  0  0  0
   13.6599    5.1108    0.0000 H   0  0  0  0  0  0  0  0  0  0  0  0
  1 13  1  0  0  0  0
  1 71  1  0  0  0  0
  2 26  1  0  0  0  0
  2 75  1  0  0  0  0
  3 25  2  0  0  0  0
  4 29  1  0  0  0  0
  4 76  1  0  0  0  0
  5 33  2  0  0  0  0
  6 37  1  0  0  0  0
  6 83  1  0  0  0  0
  7 37  2  0  0  0  0
  8  9  1  0  0  0  0
  8 12  1  0  0  0  0
  8 13  1  0  0  0  0
  8 23  1  0  0  0  0
  9 10  1  0  0  0  0
  9 17  1  0  0  0  0
  9 24  1  0  0  0  0
 10 16  1  0  0  0  0
 10 22  1  0  0  0  0
 10 38  1  0  0  0  0
 11 14  1  0  0  0  0
 11 15  1  0  0  0  0
 11 21  1  0  0  0  0
 11 28  1  0  0  0  0
 12 15  2  0  0  0  0
 12 19  1  0  0  0  0
 13 16  1  0  0  0  0
 13 40  1  0  0  0  0
 14 18  1  0  0  0  0
 14 20  1  0  0  0  0
 14 39  1  0  0  0  0
 15 25  1  0  0  0  0
 16 41  1  0  0  0  0
 16 42  1  0  0  0  0
 17 25  1  0  0  0  0
 17 43  1  0  0  0  0
 17 44  1  0  0  0  0
 18 26  1  0  0  0  0
 18 29  1  0  0  0  0
 18 30  1  0  0  0  0
 19 20  1  0  0  0  0
 19 45  1  0  0  0  0
 19 46  1  0  0  0  0
 20 47  1  0  0  0  0
 20 48  1  0  0  0  0
 21 27  1  0  0  0  0
 21 49  1  0  0  0  0
 21 50  1  0  0  0  0
 22 31  1  0  0  0  0
 22 32  1  0  0  0  0
 22 51  1  0  0  0  0
 23 52  1  0  0  0  0
 23 53  1  0  0  0  0
 23 54  1  0  0  0  0
 24 55  1  0  0  0  0
 24 56  1  0  0  0  0
 24 57  1  0  0  0  0
 26 27  1  0  0  0  0
 26 58  1  0  0  0  0
 27 59  1  0  0  0  0
 27 60  1  0  0  0  0
 28 61  1  0  0  0  0
 28 62  1  0  0  0  0
 28 63  1  0  0  0  0
 29 64  1  0  0  0  0
 29 65  1  0  0  0  0
 30 66  1  0  0  0  0
 30 67  1  0  0  0  0
 30 68  1  0  0  0  0
 31 33  1  0  0  0  0
 31 69  1  0  0  0  0
 31 70  1  0  0  0  0
 32 72  1  0  0  0  0
 32 73  1  0  0  0  0
 32 74  1  0  0  0  0
 33 34  1  0  0  0  0
 34 35  1  0  0  0  0
 34 77  1  0  0  0  0
 34 78  1  0  0  0  0
 35 36  1  0  0  0  0
 35 37  1  0  0  0  0
 35 79  1  0  0  0  0
 36 80  1  0  0  0  0
 36 81  1  0  0  0  0
 36 82  1  0  0  0  0
M  END
> <PUBCHEM_COMPOUND_CID>
14109400

> <PUBCHEM_COMPOUND_CANONICALIZED>
1

> <PUBCHEM_CACTVS_COMPLEXITY>
1020

> <PUBCHEM_CACTVS_HBOND_ACCEPTOR>
7

> <PUBCHEM_CACTVS_HBOND_DONOR>
4

> <PUBCHEM_CACTVS_ROTATABLE_BOND>
7

> <PUBCHEM_CACTVS_SUBSKEYS>
AAADcfB4OAAAAAAAAAAAAAAAAAAAAYAAAAAwQIAAAAAAAEDAAAAAGgAACAAADxSggAICCAAAAgCIAoDQCAAAAAAgAAAACAEAAEgAEBIAAAAAQAAFwAAIAQOLzPDPgAAAAAAAAABAAAYAADAAAYAADAAAAA==

> <PUBCHEM_IUPAC_OPENEYE_NAME>
6-[3,15-dihydroxy-4-(hydroxymethyl)-4,10,13,14-tetramethyl-11-oxo-1,2,3,5,6,7,12,15,16,17-decahydrocyclopenta[a]phenanthren-17-yl]-2-methyl-4-oxo-heptanoic acid

> <PUBCHEM_IUPAC_CAS_NAME>
6-[3,15-dihydroxy-4-(hydroxymethyl)-4,10,13,14-tetramethyl-11-oxo-1,2,3,5,6,7,12,15,16,17-decahydrocyclopenta[a]phenanthren-17-yl]-2-methyl-4-oxoheptanoic acid

> <PUBCHEM_IUPAC_NAME_MARKUP>
6-[3,15-dihydroxy-4-(hydroxymethyl)-4,10,13,14-tetramethyl-11-oxo-1,2,3,5,6,7,12,15,16,17-decahydrocyclopenta[a]phenanthren-17-yl]-2-methyl-4-oxoheptanoic acid

> <PUBCHEM_IUPAC_NAME>
6-[3,15-dihydroxy-4-(hydroxymethyl)-4,10,13,14-tetramethyl-11-oxo-1,2,3,5,6,7,12,15,16,17-decahydrocyclopenta[a]phenanthren-17-yl]-2-methyl-4-oxoheptanoic acid

> <PUBCHEM_IUPAC_SYSTEMATIC_NAME>
6-[4-(hydroxymethyl)-4,10,13,14-tetramethyl-3,15-bis(oxidanyl)-11-oxidanylidene-1,2,3,5,6,7,12,15,16,17-decahydrocyclopenta[a]phenanthren-17-yl]-2-methyl-4-oxidanylidene-heptanoic acid

> <PUBCHEM_IUPAC_TRADITIONAL_NAME>
6-(3,15-dihydroxy-11-keto-4,10,13,14-tetramethyl-4-methylol-1,2,3,5,6,7,12,15,16,17-decahydrocyclopenta[a]phenanthren-17-yl)-4-keto-2-methyl-enanthic acid

> <PUBCHEM_IUPAC_INCHI>
InChI=1S/C30H46O7/c1-16(11-18(32)12-17(2)26(36)37)20-13-24(35)30(6)19-7-8-22-27(3,10-9-23(34)28(22,4)15-31)25(19)21(33)14-29(20,30)5/h16-17,20,22-24,31,34-35H,7-15H2,1-6H3,(H,36,37)

> <PUBCHEM_IUPAC_INCHIKEY>
FMQZBQQCIZBLHW-UHFFFAOYSA-N

> <PUBCHEM_XLOGP3_AA>
3.1

> <PUBCHEM_EXACT_MASS>
518.324354

> <PUBCHEM_MOLECULAR_FORMULA>
C30H46O7

> <PUBCHEM_MOLECULAR_WEIGHT>
518.7

> <PUBCHEM_OPENEYE_CAN_SMILES>
CC(CC(=O)CC(C)C(=O)O)C1CC(C2(C1(CC(=O)C3=C2CCC4C3(CCC(C4(C)CO)O)C)C)C)O

> <PUBCHEM_OPENEYE_ISO_SMILES>
CC(CC(=O)CC(C)C(=O)O)C1CC(C2(C1(CC(=O)C3=C2CCC4C3(CCC(C4(C)CO)O)C)C)C)O

> <PUBCHEM_CACTVS_TPSA>
132

> <PUBCHEM_MONOISOTOPIC_WEIGHT>
518.324354

> <PUBCHEM_TOTAL_CHARGE>
0

> <PUBCHEM_HEAVY_ATOM_COUNT>
37

> <PUBCHEM_ATOM_DEF_STEREO_COUNT>
0

> <PUBCHEM_ATOM_UDEF_STEREO_COUNT>
10

> <PUBCHEM_BOND_DEF_STEREO_COUNT>
0

> <PUBCHEM_BOND_UDEF_STEREO_COUNT>
0

> <PUBCHEM_ISOTOPIC_ATOM_COUNT>
0

> <PUBCHEM_COMPONENT_COUNT>
1

> <PUBCHEM_CACTVS_TAUTO_COUNT>
-1

> <PUBCHEM_COORDINATE_TYPE>
1
5
255

> <PUBCHEM_BONDANNOTATIONS>
13  1  3
10  16  3
11  28  3
14  20  3
18  30  3
26  2  3
22  32  3
35  36  3
8  23  3
9  24  3

$$$$
