131751894
  -OEChem-09122003182D

 72 75  0     1  0  0  0  0  0999 V2000
    7.0628    1.6348    0.0000 O   0  0  0  0  0  0  0  0  0  0  0  0
    9.1857   -2.1205    0.0000 O   0  0  0  0  0  0  0  0  0  0  0  0
    2.5357   -2.9176    0.0000 O   0  0  0  0  0  0  0  0  0  0  0  0
    5.3307    0.6348    0.0000 O   0  0  0  0  0  0  0  0  0  0  0  0
    7.9506   -2.8967    0.0000 O   0  0  0  0  0  0  0  0  0  0  0  0
   11.7640    3.7035    0.0000 O   0  0  0  0  0  0  0  0  0  0  0  0
   12.1212    2.0087    0.0000 O   0  0  0  0  0  0  0  0  0  0  0  0
    7.9288    0.1348    0.0000 C   0  0  3  0  0  0  0  0  0  0  0  0
    7.9288   -0.8652    0.0000 C   0  0  3  0  0  0  0  0  0  0  0  0
    5.2868   -1.3721    0.0000 C   0  0  3  0  0  0  0  0  0  0  0  0
    8.8750    0.4395    0.0000 C   0  0  3  0  0  0  0  0  0  0  0  0
    5.2787   -2.4137    0.0000 C   0  0  3  0  0  0  0  0  0  0  0  0
    7.0628   -1.3652    0.0000 C   0  0  0  0  0  0  0  0  0  0  0  0
    6.1968   -0.8652    0.0000 C   0  0  0  0  0  0  0  0  0  0  0  0
    4.3433   -2.9634    0.0000 C   0  0  0  0  0  0  0  0  0  0  0  0
    7.0628    0.6348    0.0000 C   0  0  3  0  0  0  0  0  0  0  0  0
    9.4586   -0.3652    0.0000 C   0  0  0  0  0  0  0  0  0  0  0  0
    8.8750   -1.1700    0.0000 C   0  0  0  0  0  0  0  0  0  0  0  0
    4.3599   -0.8080    0.0000 C   0  0  0  0  0  0  0  0  0  0  0  0
    6.1808   -2.9345    0.0000 C   0  0  0  0  0  0  0  0  0  0  0  0
    6.1968    0.1348    0.0000 C   0  0  0  0  0  0  0  0  0  0  0  0
    9.1857    1.3900    0.0000 C   0  0  3  0  0  0  0  0  0  0  0  0
    3.4037   -2.4209    0.0000 C   0  0  3  0  0  0  0  0  0  0  0  0
    7.9288    1.1348    0.0000 C   0  0  0  0  0  0  0  0  0  0  0  0
    7.0789   -2.4067    0.0000 C   0  0  0  0  0  0  0  0  0  0  0  0
    7.9288   -1.8652    0.0000 C   0  0  0  0  0  0  0  0  0  0  0  0
    3.4120   -1.3360    0.0000 C   0  0  0  0  0  0  0  0  0  0  0  0
    5.2945   -0.3721    0.0000 C   0  0  0  0  0  0  0  0  0  0  0  0
    3.8467   -3.8314    0.0000 C   0  0  0  0  0  0  0  0  0  0  0  0
    4.8466   -3.8275    0.0000 C   0  0  0  0  0  0  0  0  0  0  0  0
   10.1642    1.5962    0.0000 C   0  0  0  0  0  0  0  0  0  0  0  0
    8.5179    2.1343    0.0000 C   0  0  0  0  0  0  0  0  0  0  0  0
   10.4749    2.5468    0.0000 C   0  0  0  0  0  0  0  0  0  0  0  0
   11.4534    2.7530    0.0000 C   0  0  0  0  0  0  0  0  0  0  0  0
    9.4875    0.5357    0.0000 H   0  0  0  0  0  0  0  0  0  0  0  0
    5.2811   -3.0337    0.0000 H   0  0  0  0  0  0  0  0  0  0  0  0
    6.5259    0.9448    0.0000 H   0  0  0  0  0  0  0  0  0  0  0  0
    9.9195   -0.7800    0.0000 H   0  0  0  0  0  0  0  0  0  0  0  0
    9.9195    0.0495    0.0000 H   0  0  0  0  0  0  0  0  0  0  0  0
    4.7681   -0.3413    0.0000 H   0  0  0  0  0  0  0  0  0  0  0  0
    3.9700   -0.3260    0.0000 H   0  0  0  0  0  0  0  0  0  0  0  0
    5.7835   -3.4105    0.0000 H   0  0  0  0  0  0  0  0  0  0  0  0
    6.5818   -3.4074    0.0000 H   0  0  0  0  0  0  0  0  0  0  0  0
    9.3783    1.9793    0.0000 H   0  0  0  0  0  0  0  0  0  0  0  0
    3.4025   -3.0409    0.0000 H   0  0  0  0  0  0  0  0  0  0  0  0
    8.5488    1.1348    0.0000 H   0  0  0  0  0  0  0  0  0  0  0  0
    7.9288    1.7548    0.0000 H   0  0  0  0  0  0  0  0  0  0  0  0
    7.3088    1.1348    0.0000 H   0  0  0  0  0  0  0  0  0  0  0  0
    7.3088   -1.8652    0.0000 H   0  0  0  0  0  0  0  0  0  0  0  0
    7.9288   -2.4852    0.0000 H   0  0  0  0  0  0  0  0  0  0  0  0
    8.5488   -1.8652    0.0000 H   0  0  0  0  0  0  0  0  0  0  0  0
    3.2075   -0.7507    0.0000 H   0  0  0  0  0  0  0  0  0  0  0  0
    2.8004   -1.4373    0.0000 H   0  0  0  0  0  0  0  0  0  0  0  0
    5.9145   -0.3769    0.0000 H   0  0  0  0  0  0  0  0  0  0  0  0
    5.2993    0.2479    0.0000 H   0  0  0  0  0  0  0  0  0  0  0  0
    4.6745   -0.3673    0.0000 H   0  0  0  0  0  0  0  0  0  0  0  0
    3.3085   -3.5234    0.0000 H   0  0  0  0  0  0  0  0  0  0  0  0
    3.5387   -4.3695    0.0000 H   0  0  0  0  0  0  0  0  0  0  0  0
    4.3848   -4.1393    0.0000 H   0  0  0  0  0  0  0  0  0  0  0  0
    4.3109   -4.1396    0.0000 H   0  0  0  0  0  0  0  0  0  0  0  0
    5.1587   -4.3632    0.0000 H   0  0  0  0  0  0  0  0  0  0  0  0
    5.3824   -3.5154    0.0000 H   0  0  0  0  0  0  0  0  0  0  0  0
   10.1848    0.9766    0.0000 H   0  0  0  0  0  0  0  0  0  0  0  0
   10.7780    1.5089    0.0000 H   0  0  0  0  0  0  0  0  0  0  0  0
    8.9793    2.5484    0.0000 H   0  0  0  0  0  0  0  0  0  0  0  0
    8.1038    2.5958    0.0000 H   0  0  0  0  0  0  0  0  0  0  0  0
    8.0564    1.7203    0.0000 H   0  0  0  0  0  0  0  0  0  0  0  0
    6.5259    1.9448    0.0000 H   0  0  0  0  0  0  0  0  0  0  0  0
    2.0000   -2.6055    0.0000 H   0  0  0  0  0  0  0  0  0  0  0  0
   10.4543    3.1664    0.0000 H   0  0  0  0  0  0  0  0  0  0  0  0
    9.8611    2.6341    0.0000 H   0  0  0  0  0  0  0  0  0  0  0  0
   12.3707    3.8314    0.0000 H   0  0  0  0  0  0  0  0  0  0  0  0
  1 16  1  0  0  0  0
  1 68  1  0  0  0  0
  2 18  2  0  0  0  0
  3 23  1  0  0  0  0
  3 69  1  0  0  0  0
  4 21  2  0  0  0  0
  5 25  2  0  0  0  0
  6 34  1  0  0  0  0
  6 72  1  0  0  0  0
  7 34  2  0  0  0  0
  8  9  1  0  0  0  0
  8 11  1  0  0  0  0
  8 16  1  0  0  0  0
  8 24  1  0  0  0  0
  9 13  1  0  0  0  0
  9 18  1  0  0  0  0
  9 26  1  0  0  0  0
 10 12  1  0  0  0  0
 10 14  1  0  0  0  0
 10 19  1  0  0  0  0
 10 28  1  0  0  0  0
 11 17  1  0  0  0  0
 11 22  1  0  0  0  0
 11 35  1  0  0  0  0
 12 15  1  0  0  0  0
 12 20  1  0  0  0  0
 12 36  1  0  0  0  0
 13 14  2  0  0  0  0
 13 25  1  0  0  0  0
 14 21  1  0  0  0  0
 15 23  1  0  0  0  0
 15 29  1  0  0  0  0
 15 30  1  0  0  0  0
 16 21  1  0  0  0  0
 16 37  1  0  0  0  0
 17 18  1  0  0  0  0
 17 38  1  0  0  0  0
 17 39  1  0  0  0  0
 19 27  1  0  0  0  0
 19 40  1  0  0  0  0
 19 41  1  0  0  0  0
 20 25  1  0  0  0  0
 20 42  1  0  0  0  0
 20 43  1  0  0  0  0
 22 31  1  0  0  0  0
 22 32  1  0  0  0  0
 22 44  1  0  0  0  0
 23 27  1  0  0  0  0
 23 45  1  0  0  0  0
 24 46  1  0  0  0  0
 24 47  1  0  0  0  0
 24 48  1  0  0  0  0
 26 49  1  0  0  0  0
 26 50  1  0  0  0  0
 26 51  1  0  0  0  0
 27 52  1  0  0  0  0
 27 53  1  0  0  0  0
 28 54  1  0  0  0  0
 28 55  1  0  0  0  0
 28 56  1  0  0  0  0
 29 57  1  0  0  0  0
 29 58  1  0  0  0  0
 29 59  1  0  0  0  0
 30 60  1  0  0  0  0
 30 61  1  0  0  0  0
 30 62  1  0  0  0  0
 31 33  1  0  0  0  0
 31 63  1  0  0  0  0
 31 64  1  0  0  0  0
 32 65  1  0  0  0  0
 32 66  1  0  0  0  0
 32 67  1  0  0  0  0
 33 34  1  0  0  0  0
 33 70  1  0  0  0  0
 33 71  1  0  0  0  0
M  END
> <PUBCHEM_COMPOUND_CID>
131751894

> <PUBCHEM_COMPOUND_CANONICALIZED>
1

> <PUBCHEM_CACTVS_COMPLEXITY>
1010

> <PUBCHEM_CACTVS_HBOND_ACCEPTOR>
7

> <PUBCHEM_CACTVS_HBOND_DONOR>
3

> <PUBCHEM_CACTVS_ROTATABLE_BOND>
4

> <PUBCHEM_CACTVS_SUBSKEYS>
AAADcfB4OAAAAAAAAAAAAAAAAAAAAYAAAAAwQIAAAAAAAEDAAAAAGgAACAAADxSggAICCAAAAgCIAoDQCAIAAAAgAAAACAFAAEgAEBIAAAAAQAAEwAAIAQOLzvDvgAAAAAAAAABAAAYAADAAAQAACAAAAA==

> <PUBCHEM_IUPAC_OPENEYE_NAME>
4-(3,12-dihydroxy-4,4,10,13,14-pentamethyl-7,11,15-trioxo-1,2,3,5,6,12,16,17-octahydrocyclopenta[a]phenanthren-17-yl)pentanoic acid

> <PUBCHEM_IUPAC_CAS_NAME>
4-(3,12-dihydroxy-4,4,10,13,14-pentamethyl-7,11,15-trioxo-1,2,3,5,6,12,16,17-octahydrocyclopenta[a]phenanthren-17-yl)pentanoic acid

> <PUBCHEM_IUPAC_NAME_MARKUP>
4-(3,12-dihydroxy-4,4,10,13,14-pentamethyl-7,11,15-trioxo-1,2,3,5,6,12,16,17-octahydrocyclopenta[a]phenanthren-17-yl)pentanoic acid

> <PUBCHEM_IUPAC_NAME>
4-(3,12-dihydroxy-4,4,10,13,14-pentamethyl-7,11,15-trioxo-1,2,3,5,6,12,16,17-octahydrocyclopenta[a]phenanthren-17-yl)pentanoic acid

> <PUBCHEM_IUPAC_SYSTEMATIC_NAME>
4-[4,4,10,13,14-pentamethyl-3,12-bis(oxidanyl)-7,11,15-tris(oxidanylidene)-1,2,3,5,6,12,16,17-octahydrocyclopenta[a]phenanthren-17-yl]pentanoic acid

> <PUBCHEM_IUPAC_TRADITIONAL_NAME>
4-(3,12-dihydroxy-7,11,15-triketo-4,4,10,13,14-pentamethyl-1,2,3,5,6,12,16,17-octahydrocyclopenta[a]phenanthren-17-yl)valeric acid

> <PUBCHEM_IUPAC_INCHI>
InChI=1S/C27H38O7/c1-13(7-8-19(31)32)14-11-18(30)27(6)20-15(28)12-16-24(2,3)17(29)9-10-25(16,4)21(20)22(33)23(34)26(14,27)5/h13-14,16-17,23,29,34H,7-12H2,1-6H3,(H,31,32)

> <PUBCHEM_IUPAC_INCHIKEY>
CVEGYVMAZQZPTH-UHFFFAOYSA-N

> <PUBCHEM_XLOGP3_AA>
2.2

> <PUBCHEM_EXACT_MASS>
474.261754

> <PUBCHEM_MOLECULAR_FORMULA>
C27H38O7

> <PUBCHEM_MOLECULAR_WEIGHT>
474.6

> <PUBCHEM_OPENEYE_CAN_SMILES>
CC(CCC(=O)O)C1CC(=O)C2(C1(C(C(=O)C3=C2C(=O)CC4C3(CCC(C4(C)C)O)C)O)C)C

> <PUBCHEM_OPENEYE_ISO_SMILES>
CC(CCC(=O)O)C1CC(=O)C2(C1(C(C(=O)C3=C2C(=O)CC4C3(CCC(C4(C)C)O)C)O)C)C

> <PUBCHEM_CACTVS_TPSA>
129

> <PUBCHEM_MONOISOTOPIC_WEIGHT>
474.261754

> <PUBCHEM_TOTAL_CHARGE>
0

> <PUBCHEM_HEAVY_ATOM_COUNT>
34

> <PUBCHEM_ATOM_DEF_STEREO_COUNT>
0

> <PUBCHEM_ATOM_UDEF_STEREO_COUNT>
8

> <PUBCHEM_BOND_DEF_STEREO_COUNT>
0

> <PUBCHEM_BOND_UDEF_STEREO_COUNT>
0

> <PUBCHEM_ISOTOPIC_ATOM_COUNT>
0

> <PUBCHEM_COMPONENT_COUNT>
1

> <PUBCHEM_CACTVS_TAUTO_COUNT>
-1

> <PUBCHEM_COORDINATE_TYPE>
1
5
255

> <PUBCHEM_BONDANNOTATIONS>
16  1  3
10  28  3
11  17  3
12  20  3
22  32  3
23  3  3
8  24  3
9  26  3

$$$$
