131751712
  -OEChem-09122004202D

 91 94  0     1  0  0  0  0  0999 V2000
   10.3820   -3.1021    0.0000 O   0  0  0  0  0  0  0  0  0  0  0  0
    9.1469   -3.8783    0.0000 O   0  0  0  0  0  0  0  0  0  0  0  0
    3.7320   -3.8991    0.0000 O   0  0  0  0  0  0  0  0  0  0  0  0
    2.8718   -2.3958    0.0000 O   0  0  0  0  0  0  0  0  0  0  0  0
   12.6032    4.4167    0.0000 O   0  0  0  0  0  0  0  0  0  0  0  0
   11.3140    3.2600    0.0000 O   0  0  0  0  0  0  0  0  0  0  0  0
    9.1251   -0.8468    0.0000 C   0  0  3  0  0  0  0  0  0  0  0  0
    9.1251   -1.8468    0.0000 C   0  0  3  0  0  0  0  0  0  0  0  0
   10.0713   -0.5421    0.0000 C   0  0  3  0  0  0  0  0  0  0  0  0
    6.4831   -2.3537    0.0000 C   0  0  3  0  0  0  0  0  0  0  0  0
    8.2591   -2.3468    0.0000 C   0  0  0  0  0  0  0  0  0  0  0  0
   10.0713   -2.1516    0.0000 C   0  0  3  0  0  0  0  0  0  0  0  0
    6.4750   -3.3953    0.0000 C   0  0  3  0  0  0  0  0  0  0  0  0
    7.3931   -1.8468    0.0000 C   0  0  0  0  0  0  0  0  0  0  0  0
    8.2591   -0.3468    0.0000 C   0  0  0  0  0  0  0  0  0  0  0  0
   10.6550   -1.3468    0.0000 C   0  0  0  0  0  0  0  0  0  0  0  0
    7.3931   -0.8468    0.0000 C   0  0  0  0  0  0  0  0  0  0  0  0
    8.2752   -3.3883    0.0000 C   0  0  3  0  0  0  0  0  0  0  0  0
    5.5396   -3.9450    0.0000 C   0  0  0  0  0  0  0  0  0  0  0  0
    7.3771   -3.9161    0.0000 C   0  0  0  0  0  0  0  0  0  0  0  0
    5.5562   -1.7896    0.0000 C   0  0  0  0  0  0  0  0  0  0  0  0
   10.3820    0.4084    0.0000 C   0  0  3  0  0  0  0  0  0  0  0  0
    9.1251    0.1532    0.0000 C   0  0  0  0  0  0  0  0  0  0  0  0
    9.1251   -2.8468    0.0000 C   0  0  0  0  0  0  0  0  0  0  0  0
    4.6000   -3.4025    0.0000 C   0  0  3  0  0  0  0  0  0  0  0  0
    4.6084   -2.3175    0.0000 C   0  0  0  0  0  0  0  0  0  0  0  0
    6.4908   -1.3537    0.0000 C   0  0  0  0  0  0  0  0  0  0  0  0
    5.0430   -4.8129    0.0000 C   0  0  0  0  0  0  0  0  0  0  0  0
    6.0430   -4.8091    0.0000 C   0  0  0  0  0  0  0  0  0  0  0  0
   11.3605    0.6147    0.0000 C   0  0  0  0  0  0  0  0  0  0  0  0
    9.7142    1.1527    0.0000 C   0  0  0  0  0  0  0  0  0  0  0  0
   11.6712    1.5652    0.0000 C   0  0  0  0  0  0  0  0  0  0  0  0
    9.1585   -4.8782    0.0000 C   0  0  0  0  0  0  0  0  0  0  0  0
    2.8680   -3.3958    0.0000 C   0  0  0  0  0  0  0  0  0  0  0  0
   12.6497    1.7714    0.0000 C   0  0  0  0  0  0  0  0  0  0  0  0
    2.0000   -3.8925    0.0000 C   0  0  0  0  0  0  0  0  0  0  0  0
   12.9603    2.7219    0.0000 C   0  0  0  0  0  0  0  0  0  0  0  0
   13.9388    2.9281    0.0000 C   0  0  0  0  0  0  0  0  0  0  0  0
   12.2925    3.4662    0.0000 C   0  0  0  0  0  0  0  0  0  0  0  0
   10.6838   -0.4459    0.0000 H   0  0  0  0  0  0  0  0  0  0  0  0
    9.6339   -2.5909    0.0000 H   0  0  0  0  0  0  0  0  0  0  0  0
    6.4774   -4.0152    0.0000 H   0  0  0  0  0  0  0  0  0  0  0  0
    8.6576    0.1281    0.0000 H   0  0  0  0  0  0  0  0  0  0  0  0
    7.8606    0.1281    0.0000 H   0  0  0  0  0  0  0  0  0  0  0  0
   11.1158   -1.7615    0.0000 H   0  0  0  0  0  0  0  0  0  0  0  0
   11.1158   -0.9321    0.0000 H   0  0  0  0  0  0  0  0  0  0  0  0
    7.1810   -0.2642    0.0000 H   0  0  0  0  0  0  0  0  0  0  0  0
    6.7825   -0.9545    0.0000 H   0  0  0  0  0  0  0  0  0  0  0  0
    8.2811   -4.0083    0.0000 H   0  0  0  0  0  0  0  0  0  0  0  0
    6.9798   -4.3920    0.0000 H   0  0  0  0  0  0  0  0  0  0  0  0
    7.7781   -4.3890    0.0000 H   0  0  0  0  0  0  0  0  0  0  0  0
    5.9644   -1.3229    0.0000 H   0  0  0  0  0  0  0  0  0  0  0  0
    5.1663   -1.3075    0.0000 H   0  0  0  0  0  0  0  0  0  0  0  0
   10.5746    0.9978    0.0000 H   0  0  0  0  0  0  0  0  0  0  0  0
    9.7451    0.1532    0.0000 H   0  0  0  0  0  0  0  0  0  0  0  0
    9.1251    0.7732    0.0000 H   0  0  0  0  0  0  0  0  0  0  0  0
    8.5051    0.1532    0.0000 H   0  0  0  0  0  0  0  0  0  0  0  0
    8.5051   -2.8468    0.0000 H   0  0  0  0  0  0  0  0  0  0  0  0
    9.1251   -3.4668    0.0000 H   0  0  0  0  0  0  0  0  0  0  0  0
    9.7451   -2.8468    0.0000 H   0  0  0  0  0  0  0  0  0  0  0  0
    4.0648   -3.0894    0.0000 H   0  0  0  0  0  0  0  0  0  0  0  0
    4.4038   -1.7322    0.0000 H   0  0  0  0  0  0  0  0  0  0  0  0
    3.9967   -2.4189    0.0000 H   0  0  0  0  0  0  0  0  0  0  0  0
    7.1108   -1.3585    0.0000 H   0  0  0  0  0  0  0  0  0  0  0  0
    6.4956   -0.7337    0.0000 H   0  0  0  0  0  0  0  0  0  0  0  0
    5.8708   -1.3489    0.0000 H   0  0  0  0  0  0  0  0  0  0  0  0
    4.5048   -4.5050    0.0000 H   0  0  0  0  0  0  0  0  0  0  0  0
    4.7350   -5.3511    0.0000 H   0  0  0  0  0  0  0  0  0  0  0  0
    5.5811   -5.1209    0.0000 H   0  0  0  0  0  0  0  0  0  0  0  0
    5.5072   -5.1211    0.0000 H   0  0  0  0  0  0  0  0  0  0  0  0
    6.3550   -5.3448    0.0000 H   0  0  0  0  0  0  0  0  0  0  0  0
    6.5787   -4.4970    0.0000 H   0  0  0  0  0  0  0  0  0  0  0  0
   11.3811   -0.0050    0.0000 H   0  0  0  0  0  0  0  0  0  0  0  0
   11.9743    0.5273    0.0000 H   0  0  0  0  0  0  0  0  0  0  0  0
   10.9887   -3.2299    0.0000 H   0  0  0  0  0  0  0  0  0  0  0  0
   10.1756    1.5668    0.0000 H   0  0  0  0  0  0  0  0  0  0  0  0
    9.3001    1.6142    0.0000 H   0  0  0  0  0  0  0  0  0  0  0  0
    9.2527    0.7387    0.0000 H   0  0  0  0  0  0  0  0  0  0  0  0
   11.6506    2.1848    0.0000 H   0  0  0  0  0  0  0  0  0  0  0  0
   11.0574    1.6525    0.0000 H   0  0  0  0  0  0  0  0  0  0  0  0
    8.5385   -4.8854    0.0000 H   0  0  0  0  0  0  0  0  0  0  0  0
    9.1656   -5.4982    0.0000 H   0  0  0  0  0  0  0  0  0  0  0  0
    9.7784   -4.8710    0.0000 H   0  0  0  0  0  0  0  0  0  0  0  0
   13.0637    1.3099    0.0000 H   0  0  0  0  0  0  0  0  0  0  0  0
    1.6921   -3.3543    0.0000 H   0  0  0  0  0  0  0  0  0  0  0  0
    1.4619   -4.2004    0.0000 H   0  0  0  0  0  0  0  0  0  0  0  0
    2.3079   -4.4306    0.0000 H   0  0  0  0  0  0  0  0  0  0  0  0
   14.0667    2.3215    0.0000 H   0  0  0  0  0  0  0  0  0  0  0  0
   14.5455    3.0560    0.0000 H   0  0  0  0  0  0  0  0  0  0  0  0
   13.8110    3.5348    0.0000 H   0  0  0  0  0  0  0  0  0  0  0  0
   12.1891    4.8782    0.0000 H   0  0  0  0  0  0  0  0  0  0  0  0
  1 12  1  0  0  0  0
  1 75  1  0  0  0  0
  2 18  1  0  0  0  0
  2 33  1  0  0  0  0
  3 25  1  0  0  0  0
  3 34  1  0  0  0  0
  4 34  2  0  0  0  0
  5 39  1  0  0  0  0
  5 91  1  0  0  0  0
  6 39  2  0  0  0  0
  7  8  1  0  0  0  0
  7  9  1  0  0  0  0
  7 15  1  0  0  0  0
  7 23  1  0  0  0  0
  8 11  1  0  0  0  0
  8 12  1  0  0  0  0
  8 24  1  0  0  0  0
  9 16  1  0  0  0  0
  9 22  1  0  0  0  0
  9 40  1  0  0  0  0
 10 13  1  0  0  0  0
 10 14  1  0  0  0  0
 10 21  1  0  0  0  0
 10 27  1  0  0  0  0
 11 14  2  0  0  0  0
 11 18  1  0  0  0  0
 12 16  1  0  0  0  0
 12 41  1  0  0  0  0
 13 19  1  0  0  0  0
 13 20  1  0  0  0  0
 13 42  1  0  0  0  0
 14 17  1  0  0  0  0
 15 17  1  0  0  0  0
 15 43  1  0  0  0  0
 15 44  1  0  0  0  0
 16 45  1  0  0  0  0
 16 46  1  0  0  0  0
 17 47  1  0  0  0  0
 17 48  1  0  0  0  0
 18 20  1  0  0  0  0
 18 49  1  0  0  0  0
 19 25  1  0  0  0  0
 19 28  1  0  0  0  0
 19 29  1  0  0  0  0
 20 50  1  0  0  0  0
 20 51  1  0  0  0  0
 21 26  1  0  0  0  0
 21 52  1  0  0  0  0
 21 53  1  0  0  0  0
 22 30  1  0  0  0  0
 22 31  1  0  0  0  0
 22 54  1  0  0  0  0
 23 55  1  0  0  0  0
 23 56  1  0  0  0  0
 23 57  1  0  0  0  0
 24 58  1  0  0  0  0
 24 59  1  0  0  0  0
 24 60  1  0  0  0  0
 25 26  1  0  0  0  0
 25 61  1  0  0  0  0
 26 62  1  0  0  0  0
 26 63  1  0  0  0  0
 27 64  1  0  0  0  0
 27 65  1  0  0  0  0
 27 66  1  0  0  0  0
 28 67  1  0  0  0  0
 28 68  1  0  0  0  0
 28 69  1  0  0  0  0
 29 70  1  0  0  0  0
 29 71  1  0  0  0  0
 29 72  1  0  0  0  0
 30 32  1  0  0  0  0
 30 73  1  0  0  0  0
 30 74  1  0  0  0  0
 31 76  1  0  0  0  0
 31 77  1  0  0  0  0
 31 78  1  0  0  0  0
 32 35  1  0  0  0  0
 32 79  1  0  0  0  0
 32 80  1  0  0  0  0
 33 81  1  0  0  0  0
 33 82  1  0  0  0  0
 33 83  1  0  0  0  0
 34 36  1  0  0  0  0
 35 37  2  0  0  0  0
 35 84  1  0  0  0  0
 36 85  1  0  0  0  0
 36 86  1  0  0  0  0
 36 87  1  0  0  0  0
 37 38  1  0  0  0  0
 37 39  1  0  0  0  0
 38 88  1  0  0  0  0
 38 89  1  0  0  0  0
 38 90  1  0  0  0  0
M  END
> <PUBCHEM_COMPOUND_CID>
131751712

> <PUBCHEM_COMPOUND_CANONICALIZED>
1

> <PUBCHEM_CACTVS_COMPLEXITY>
1060

> <PUBCHEM_CACTVS_HBOND_ACCEPTOR>
6

> <PUBCHEM_CACTVS_HBOND_DONOR>
2

> <PUBCHEM_CACTVS_ROTATABLE_BOND>
8

> <PUBCHEM_CACTVS_SUBSKEYS>
AAADcfB8OAAAAAAAAAAAAAAAAAAAAYAAAAAwQIAAAAAAAEDAAAAAGgAACAAADxSggAICCAAABgCIAiDSCAAAAAAgAAAACAEAAEgAFAIAIQACUAAEwAAIMYPA4PwPgAAAAAAAAABAAAYAADAAAYAADAAAAA==

> <PUBCHEM_IUPAC_OPENEYE_NAME>
(Z)-6-(3-acetoxy-15-hydroxy-7-methoxy-4,4,10,13,14-pentamethyl-2,3,5,6,7,11,12,15,16,17-decahydro-1H-cyclopenta[a]phenanthren-17-yl)-2-methyl-hept-2-enoic acid

> <PUBCHEM_IUPAC_CAS_NAME>
(Z)-6-(3-acetyloxy-15-hydroxy-7-methoxy-4,4,10,13,14-pentamethyl-2,3,5,6,7,11,12,15,16,17-decahydro-1H-cyclopenta[a]phenanthren-17-yl)-2-methyl-2-heptenoic acid

> <PUBCHEM_IUPAC_NAME_MARKUP>
(<I>Z</I>)-6-(3-acetyloxy-15-hydroxy-7-methoxy-4,4,10,13,14-pentamethyl-2,3,5,6,7,11,12,15,16,17-decahydro-1<I>H</I>-cyclopenta[a]phenanthren-17-yl)-2-methylhept-2-enoic acid

> <PUBCHEM_IUPAC_NAME>
(Z)-6-(3-acetyloxy-15-hydroxy-7-methoxy-4,4,10,13,14-pentamethyl-2,3,5,6,7,11,12,15,16,17-decahydro-1H-cyclopenta[a]phenanthren-17-yl)-2-methylhept-2-enoic acid

> <PUBCHEM_IUPAC_SYSTEMATIC_NAME>
(Z)-6-(3-acetyloxy-7-methoxy-4,4,10,13,14-pentamethyl-15-oxidanyl-2,3,5,6,7,11,12,15,16,17-decahydro-1H-cyclopenta[a]phenanthren-17-yl)-2-methyl-hept-2-enoic acid

> <PUBCHEM_IUPAC_TRADITIONAL_NAME>
(Z)-6-(3-acetoxy-15-hydroxy-7-methoxy-4,4,10,13,14-pentamethyl-2,3,5,6,7,11,12,15,16,17-decahydro-1H-cyclopenta[a]phenanthren-17-yl)-2-methyl-hept-2-enoic acid

> <PUBCHEM_IUPAC_INCHI>
InChI=1S/C33H52O6/c1-19(11-10-12-20(2)29(36)37)23-17-26(35)33(8)28-22(13-16-32(23,33)7)31(6)15-14-27(39-21(3)34)30(4,5)25(31)18-24(28)38-9/h12,19,23-27,35H,10-11,13-18H2,1-9H3,(H,36,37)/b20-12-

> <PUBCHEM_IUPAC_INCHIKEY>
DOGNEMJACWRRLK-NDENLUEZSA-N

> <PUBCHEM_XLOGP3_AA>
6.1

> <PUBCHEM_EXACT_MASS>
544.376389

> <PUBCHEM_MOLECULAR_FORMULA>
C33H52O6

> <PUBCHEM_MOLECULAR_WEIGHT>
544.8

> <PUBCHEM_OPENEYE_CAN_SMILES>
CC(CCC=C(C)C(=O)O)C1CC(C2(C1(CCC3=C2C(CC4C3(CCC(C4(C)C)OC(=O)C)C)OC)C)C)O

> <PUBCHEM_OPENEYE_ISO_SMILES>
CC(CC/C=C(/C)\C(=O)O)C1CC(C2(C1(CCC3=C2C(CC4C3(CCC(C4(C)C)OC(=O)C)C)OC)C)C)O

> <PUBCHEM_CACTVS_TPSA>
93.1

> <PUBCHEM_MONOISOTOPIC_WEIGHT>
544.376389

> <PUBCHEM_TOTAL_CHARGE>
0

> <PUBCHEM_HEAVY_ATOM_COUNT>
39

> <PUBCHEM_ATOM_DEF_STEREO_COUNT>
0

> <PUBCHEM_ATOM_UDEF_STEREO_COUNT>
9

> <PUBCHEM_BOND_DEF_STEREO_COUNT>
1

> <PUBCHEM_BOND_UDEF_STEREO_COUNT>
0

> <PUBCHEM_ISOTOPIC_ATOM_COUNT>
0

> <PUBCHEM_COMPONENT_COUNT>
1

> <PUBCHEM_CACTVS_TAUTO_COUNT>
-1

> <PUBCHEM_COORDINATE_TYPE>
1
5
255

> <PUBCHEM_BONDANNOTATIONS>
12  1  3
10  27  3
13  20  3
18  2  3
22  31  3
25  3  3
7  23  3
8  24  3
9  16  3

$$$$
