13916716
  -OEChem-09122004162D

 99102  0     1  0  0  0  0  0999 V2000
   10.3820   -3.4038    0.0000 O   0  0  0  0  0  0  0  0  0  0  0  0
    9.1469   -4.1800    0.0000 O   0  0  0  0  0  0  0  0  0  0  0  0
    3.7320   -4.2008    0.0000 O   0  0  0  0  0  0  0  0  0  0  0  0
   12.0284   -0.4313    0.0000 O   0  0  0  0  0  0  0  0  0  0  0  0
   12.0284   -2.8657    0.0000 O   0  0  0  0  0  0  0  0  0  0  0  0
    2.8718   -2.6975    0.0000 O   0  0  0  0  0  0  0  0  0  0  0  0
   13.3175    0.7254    0.0000 O   0  0  0  0  0  0  0  0  0  0  0  0
   10.9568    4.6531    0.0000 O   0  0  0  0  0  0  0  0  0  0  0  0
    9.6676    3.4964    0.0000 O   0  0  0  0  0  0  0  0  0  0  0  0
    9.1251   -1.1485    0.0000 C   0  0  3  0  0  0  0  0  0  0  0  0
    9.1251   -2.1485    0.0000 C   0  0  3  0  0  0  0  0  0  0  0  0
   10.0713   -0.8438    0.0000 C   0  0  3  0  0  0  0  0  0  0  0  0
    6.4831   -2.6553    0.0000 C   0  0  3  0  0  0  0  0  0  0  0  0
    8.2591   -2.6485    0.0000 C   0  0  0  0  0  0  0  0  0  0  0  0
   10.0713   -2.4532    0.0000 C   0  0  3  0  0  0  0  0  0  0  0  0
    7.3931   -2.1485    0.0000 C   0  0  0  0  0  0  0  0  0  0  0  0
    6.4750   -3.6969    0.0000 C   0  0  3  0  0  0  0  0  0  0  0  0
    8.2591   -0.6485    0.0000 C   0  0  0  0  0  0  0  0  0  0  0  0
   10.6550   -1.6485    0.0000 C   0  0  0  0  0  0  0  0  0  0  0  0
    7.3931   -1.1485    0.0000 C   0  0  0  0  0  0  0  0  0  0  0  0
    8.2752   -3.6900    0.0000 C   0  0  3  0  0  0  0  0  0  0  0  0
    5.5396   -4.2467    0.0000 C   0  0  0  0  0  0  0  0  0  0  0  0
    7.3771   -4.2178    0.0000 C   0  0  0  0  0  0  0  0  0  0  0  0
   10.3820    0.1068    0.0000 C   0  0  3  0  0  0  0  0  0  0  0  0
    9.1251   -0.1485    0.0000 C   0  0  0  0  0  0  0  0  0  0  0  0
    9.1251   -3.1485    0.0000 C   0  0  0  0  0  0  0  0  0  0  0  0
    5.5562   -2.0913    0.0000 C   0  0  0  0  0  0  0  0  0  0  0  0
    4.6000   -3.7042    0.0000 C   0  0  3  0  0  0  0  0  0  0  0  0
    4.6084   -2.6192    0.0000 C   0  0  0  0  0  0  0  0  0  0  0  0
    6.4908   -1.6554    0.0000 C   0  0  0  0  0  0  0  0  0  0  0  0
   11.3605    0.3130    0.0000 C   0  0  3  0  0  0  0  0  0  0  0  0
    5.0430   -5.1146    0.0000 C   0  0  0  0  0  0  0  0  0  0  0  0
    6.0430   -5.1108    0.0000 C   0  0  0  0  0  0  0  0  0  0  0  0
    9.7142    0.8511    0.0000 C   0  0  0  0  0  0  0  0  0  0  0  0
   11.6712    1.2635    0.0000 C   0  0  0  0  0  0  0  0  0  0  0  0
   11.3605   -3.6100    0.0000 C   0  0  0  0  0  0  0  0  0  0  0  0
    2.8680   -3.6975    0.0000 C   0  0  0  0  0  0  0  0  0  0  0  0
   11.0033    2.0078    0.0000 C   0  0  0  0  0  0  0  0  0  0  0  0
   11.6712   -4.5605    0.0000 C   0  0  0  0  0  0  0  0  0  0  0  0
   13.0069   -0.2251    0.0000 C   0  0  0  0  0  0  0  0  0  0  0  0
    2.0000   -4.1941    0.0000 C   0  0  0  0  0  0  0  0  0  0  0  0
   11.3140    2.9583    0.0000 C   0  0  0  0  0  0  0  0  0  0  0  0
   13.6747   -0.9694    0.0000 C   0  0  0  0  0  0  0  0  0  0  0  0
   12.2925    3.1645    0.0000 C   0  0  0  0  0  0  0  0  0  0  0  0
   10.6461    3.7026    0.0000 C   0  0  0  0  0  0  0  0  0  0  0  0
   10.6838   -0.7476    0.0000 H   0  0  0  0  0  0  0  0  0  0  0  0
    9.6339   -2.8926    0.0000 H   0  0  0  0  0  0  0  0  0  0  0  0
    6.4774   -4.3169    0.0000 H   0  0  0  0  0  0  0  0  0  0  0  0
    8.6576   -0.1735    0.0000 H   0  0  0  0  0  0  0  0  0  0  0  0
    7.8606   -0.1735    0.0000 H   0  0  0  0  0  0  0  0  0  0  0  0
   11.1158   -2.0632    0.0000 H   0  0  0  0  0  0  0  0  0  0  0  0
   11.1158   -1.2338    0.0000 H   0  0  0  0  0  0  0  0  0  0  0  0
    7.1810   -0.5659    0.0000 H   0  0  0  0  0  0  0  0  0  0  0  0
    6.7825   -1.2562    0.0000 H   0  0  0  0  0  0  0  0  0  0  0  0
    8.2811   -4.3100    0.0000 H   0  0  0  0  0  0  0  0  0  0  0  0
    6.9798   -4.6937    0.0000 H   0  0  0  0  0  0  0  0  0  0  0  0
    7.7781   -4.6906    0.0000 H   0  0  0  0  0  0  0  0  0  0  0  0
   10.5746    0.6961    0.0000 H   0  0  0  0  0  0  0  0  0  0  0  0
    9.7451   -0.1485    0.0000 H   0  0  0  0  0  0  0  0  0  0  0  0
    9.1251    0.4715    0.0000 H   0  0  0  0  0  0  0  0  0  0  0  0
    8.5051   -0.1485    0.0000 H   0  0  0  0  0  0  0  0  0  0  0  0
    8.5051   -3.1485    0.0000 H   0  0  0  0  0  0  0  0  0  0  0  0
    9.1251   -3.7685    0.0000 H   0  0  0  0  0  0  0  0  0  0  0  0
    9.7451   -3.1485    0.0000 H   0  0  0  0  0  0  0  0  0  0  0  0
    5.9644   -1.6246    0.0000 H   0  0  0  0  0  0  0  0  0  0  0  0
    5.1663   -1.6092    0.0000 H   0  0  0  0  0  0  0  0  0  0  0  0
    4.0648   -3.3911    0.0000 H   0  0  0  0  0  0  0  0  0  0  0  0
    4.4038   -2.0339    0.0000 H   0  0  0  0  0  0  0  0  0  0  0  0
    3.9967   -2.7206    0.0000 H   0  0  0  0  0  0  0  0  0  0  0  0
    7.1108   -1.6602    0.0000 H   0  0  0  0  0  0  0  0  0  0  0  0
    6.4956   -1.0354    0.0000 H   0  0  0  0  0  0  0  0  0  0  0  0
    5.8708   -1.6506    0.0000 H   0  0  0  0  0  0  0  0  0  0  0  0
   11.1679   -0.2763    0.0000 H   0  0  0  0  0  0  0  0  0  0  0  0
    4.5048   -4.8067    0.0000 H   0  0  0  0  0  0  0  0  0  0  0  0
    4.7350   -5.6527    0.0000 H   0  0  0  0  0  0  0  0  0  0  0  0
    5.5811   -5.4225    0.0000 H   0  0  0  0  0  0  0  0  0  0  0  0
    5.5072   -5.4228    0.0000 H   0  0  0  0  0  0  0  0  0  0  0  0
    6.3550   -5.6465    0.0000 H   0  0  0  0  0  0  0  0  0  0  0  0
    6.5787   -4.7987    0.0000 H   0  0  0  0  0  0  0  0  0  0  0  0
   10.1756    1.2651    0.0000 H   0  0  0  0  0  0  0  0  0  0  0  0
    9.3001    1.3125    0.0000 H   0  0  0  0  0  0  0  0  0  0  0  0
    9.2527    0.4370    0.0000 H   0  0  0  0  0  0  0  0  0  0  0  0
    9.1541   -4.7999    0.0000 H   0  0  0  0  0  0  0  0  0  0  0  0
   12.2181    0.9715    0.0000 H   0  0  0  0  0  0  0  0  0  0  0  0
   12.0537    1.7514    0.0000 H   0  0  0  0  0  0  0  0  0  0  0  0
   10.3967    1.8799    0.0000 H   0  0  0  0  0  0  0  0  0  0  0  0
   11.0818   -4.7531    0.0000 H   0  0  0  0  0  0  0  0  0  0  0  0
   11.8638   -5.1498    0.0000 H   0  0  0  0  0  0  0  0  0  0  0  0
   12.2605   -4.3679    0.0000 H   0  0  0  0  0  0  0  0  0  0  0  0
    1.6921   -3.6560    0.0000 H   0  0  0  0  0  0  0  0  0  0  0  0
    1.4619   -4.5021    0.0000 H   0  0  0  0  0  0  0  0  0  0  0  0
    2.3079   -4.7323    0.0000 H   0  0  0  0  0  0  0  0  0  0  0  0
   13.2132   -1.3835    0.0000 H   0  0  0  0  0  0  0  0  0  0  0  0
   14.0888   -1.4309    0.0000 H   0  0  0  0  0  0  0  0  0  0  0  0
   14.1362   -0.5553    0.0000 H   0  0  0  0  0  0  0  0  0  0  0  0
   12.4204    2.5579    0.0000 H   0  0  0  0  0  0  0  0  0  0  0  0
   12.8992    3.2924    0.0000 H   0  0  0  0  0  0  0  0  0  0  0  0
   12.1646    3.7712    0.0000 H   0  0  0  0  0  0  0  0  0  0  0  0
   10.5427    5.1146    0.0000 H   0  0  0  0  0  0  0  0  0  0  0  0
  1 15  1  0  0  0  0
  1 36  1  0  0  0  0
  2 21  1  0  0  0  0
  2 83  1  0  0  0  0
  3 28  1  0  0  0  0
  3 37  1  0  0  0  0
  4 31  1  0  0  0  0
  4 40  1  0  0  0  0
  5 36  2  0  0  0  0
  6 37  2  0  0  0  0
  7 40  2  0  0  0  0
  8 45  1  0  0  0  0
  8 99  1  0  0  0  0
  9 45  2  0  0  0  0
 10 11  1  0  0  0  0
 10 12  1  0  0  0  0
 10 18  1  0  0  0  0
 10 25  1  0  0  0  0
 11 14  1  0  0  0  0
 11 15  1  0  0  0  0
 11 26  1  0  0  0  0
 12 19  1  0  0  0  0
 12 24  1  0  0  0  0
 12 46  1  0  0  0  0
 13 16  1  0  0  0  0
 13 17  1  0  0  0  0
 13 27  1  0  0  0  0
 13 30  1  0  0  0  0
 14 16  2  0  0  0  0
 14 21  1  0  0  0  0
 15 19  1  0  0  0  0
 15 47  1  0  0  0  0
 16 20  1  0  0  0  0
 17 22  1  0  0  0  0
 17 23  1  0  0  0  0
 17 48  1  0  0  0  0
 18 20  1  0  0  0  0
 18 49  1  0  0  0  0
 18 50  1  0  0  0  0
 19 51  1  0  0  0  0
 19 52  1  0  0  0  0
 20 53  1  0  0  0  0
 20 54  1  0  0  0  0
 21 23  1  0  0  0  0
 21 55  1  0  0  0  0
 22 28  1  0  0  0  0
 22 32  1  0  0  0  0
 22 33  1  0  0  0  0
 23 56  1  0  0  0  0
 23 57  1  0  0  0  0
 24 31  1  0  0  0  0
 24 34  1  0  0  0  0
 24 58  1  0  0  0  0
 25 59  1  0  0  0  0
 25 60  1  0  0  0  0
 25 61  1  0  0  0  0
 26 62  1  0  0  0  0
 26 63  1  0  0  0  0
 26 64  1  0  0  0  0
 27 29  1  0  0  0  0
 27 65  1  0  0  0  0
 27 66  1  0  0  0  0
 28 29  1  0  0  0  0
 28 67  1  0  0  0  0
 29 68  1  0  0  0  0
 29 69  1  0  0  0  0
 30 70  1  0  0  0  0
 30 71  1  0  0  0  0
 30 72  1  0  0  0  0
 31 35  1  0  0  0  0
 31 73  1  0  0  0  0
 32 74  1  0  0  0  0
 32 75  1  0  0  0  0
 32 76  1  0  0  0  0
 33 77  1  0  0  0  0
 33 78  1  0  0  0  0
 33 79  1  0  0  0  0
 34 80  1  0  0  0  0
 34 81  1  0  0  0  0
 34 82  1  0  0  0  0
 35 38  1  0  0  0  0
 35 84  1  0  0  0  0
 35 85  1  0  0  0  0
 36 39  1  0  0  0  0
 37 41  1  0  0  0  0
 38 42  2  0  0  0  0
 38 86  1  0  0  0  0
 39 87  1  0  0  0  0
 39 88  1  0  0  0  0
 39 89  1  0  0  0  0
 40 43  1  0  0  0  0
 41 90  1  0  0  0  0
 41 91  1  0  0  0  0
 41 92  1  0  0  0  0
 42 44  1  0  0  0  0
 42 45  1  0  0  0  0
 43 93  1  0  0  0  0
 43 94  1  0  0  0  0
 43 95  1  0  0  0  0
 44 96  1  0  0  0  0
 44 97  1  0  0  0  0
 44 98  1  0  0  0  0
M  END
> <PUBCHEM_COMPOUND_CID>
13916716

> <PUBCHEM_COMPOUND_CANONICALIZED>
1

> <PUBCHEM_CACTVS_COMPLEXITY>
1300

> <PUBCHEM_CACTVS_HBOND_ACCEPTOR>
9

> <PUBCHEM_CACTVS_HBOND_DONOR>
2

> <PUBCHEM_CACTVS_ROTATABLE_BOND>
11

> <PUBCHEM_CACTVS_SUBSKEYS>
AAADcfB8PAAAAAAAAAAAAAAAAAAAAYAAAAAwQIAAAAAAAEDAAAAAGgAACAAADxSggAICCAAABgCIAiDSCAAAAAAgAAAACAEAAEgAFAIAAQACUAAEwAAIEYPA4PwPgAAAAAAAAABAAAYAADAAAYAADAAAAA==

> <PUBCHEM_IUPAC_OPENEYE_NAME>
(E)-5-acetoxy-6-(3,15-diacetoxy-7-hydroxy-4,4,10,13,14-pentamethyl-2,3,5,6,7,11,12,15,16,17-decahydro-1H-cyclopenta[a]phenanthren-17-yl)-2-methyl-hept-2-enoic acid

> <PUBCHEM_IUPAC_CAS_NAME>
(E)-5-acetyloxy-6-(3,15-diacetyloxy-7-hydroxy-4,4,10,13,14-pentamethyl-2,3,5,6,7,11,12,15,16,17-decahydro-1H-cyclopenta[a]phenanthren-17-yl)-2-methyl-2-heptenoic acid

> <PUBCHEM_IUPAC_NAME_MARKUP>
(<I>E</I>)-5-acetyloxy-6-(3,15-diacetyloxy-7-hydroxy-4,4,10,13,14-pentamethyl-2,3,5,6,7,11,12,15,16,17-decahydro-1<I>H</I>-cyclopenta[a]phenanthren-17-yl)-2-methylhept-2-enoic acid

> <PUBCHEM_IUPAC_NAME>
(E)-5-acetyloxy-6-(3,15-diacetyloxy-7-hydroxy-4,4,10,13,14-pentamethyl-2,3,5,6,7,11,12,15,16,17-decahydro-1H-cyclopenta[a]phenanthren-17-yl)-2-methylhept-2-enoic acid

> <PUBCHEM_IUPAC_SYSTEMATIC_NAME>
(E)-5-acetyloxy-6-(3,15-diacetyloxy-4,4,10,13,14-pentamethyl-7-oxidanyl-2,3,5,6,7,11,12,15,16,17-decahydro-1H-cyclopenta[a]phenanthren-17-yl)-2-methyl-hept-2-enoic acid

> <PUBCHEM_IUPAC_TRADITIONAL_NAME>
(E)-5-acetoxy-6-(3,15-diacetoxy-7-hydroxy-4,4,10,13,14-pentamethyl-2,3,5,6,7,11,12,15,16,17-decahydro-1H-cyclopenta[a]phenanthren-17-yl)-2-methyl-hept-2-enoic acid

> <PUBCHEM_IUPAC_INCHI>
InChI=1S/C36H54O9/c1-19(32(41)42)11-12-27(43-21(3)37)20(2)25-17-30(45-23(5)39)36(10)31-24(13-16-35(25,36)9)34(8)15-14-29(44-22(4)38)33(6,7)28(34)18-26(31)40/h11,20,25-30,40H,12-18H2,1-10H3,(H,41,42)/b19-11+

> <PUBCHEM_IUPAC_INCHIKEY>
CJPRYGHXZADIKU-YBFXNURJSA-N

> <PUBCHEM_XLOGP3_AA>
5.5

> <PUBCHEM_EXACT_MASS>
630.376783

> <PUBCHEM_MOLECULAR_FORMULA>
C36H54O9

> <PUBCHEM_MOLECULAR_WEIGHT>
630.8

> <PUBCHEM_OPENEYE_CAN_SMILES>
CC(C1CC(C2(C1(CCC3=C2C(CC4C3(CCC(C4(C)C)OC(=O)C)C)O)C)C)OC(=O)C)C(CC=C(C)C(=O)O)OC(=O)C

> <PUBCHEM_OPENEYE_ISO_SMILES>
CC(C1CC(C2(C1(CCC3=C2C(CC4C3(CCC(C4(C)C)OC(=O)C)C)O)C)C)OC(=O)C)C(C/C=C(\C)/C(=O)O)OC(=O)C

> <PUBCHEM_CACTVS_TPSA>
136

> <PUBCHEM_MONOISOTOPIC_WEIGHT>
630.376783

> <PUBCHEM_TOTAL_CHARGE>
0

> <PUBCHEM_HEAVY_ATOM_COUNT>
45

> <PUBCHEM_ATOM_DEF_STEREO_COUNT>
0

> <PUBCHEM_ATOM_UDEF_STEREO_COUNT>
10

> <PUBCHEM_BOND_DEF_STEREO_COUNT>
1

> <PUBCHEM_BOND_UDEF_STEREO_COUNT>
0

> <PUBCHEM_ISOTOPIC_ATOM_COUNT>
0

> <PUBCHEM_COMPONENT_COUNT>
1

> <PUBCHEM_CACTVS_TAUTO_COUNT>
-1

> <PUBCHEM_COORDINATE_TYPE>
1
5
255

> <PUBCHEM_BONDANNOTATIONS>
15  1  3
10  25  3
11  26  3
12  19  3
13  30  3
17  23  3
21  2  3
24  34  3
28  3  3
31  35  3

$$$$
