13916711
  -OEChem-09122005442D

 91 94  0     1  0  0  0  0  0999 V2000
    9.1857   -3.4038    0.0000 O   0  0  0  0  0  0  0  0  0  0  0  0
    2.5357   -4.2008    0.0000 O   0  0  0  0  0  0  0  0  0  0  0  0
   10.8321   -0.4313    0.0000 O   0  0  0  0  0  0  0  0  0  0  0  0
   10.8321   -2.8657    0.0000 O   0  0  0  0  0  0  0  0  0  0  0  0
   12.1212    0.7254    0.0000 O   0  0  0  0  0  0  0  0  0  0  0  0
    9.7605    4.6531    0.0000 O   0  0  0  0  0  0  0  0  0  0  0  0
    8.4713    3.4964    0.0000 O   0  0  0  0  0  0  0  0  0  0  0  0
    7.9288   -1.1485    0.0000 C   0  0  3  0  0  0  0  0  0  0  0  0
    7.9288   -2.1485    0.0000 C   0  0  3  0  0  0  0  0  0  0  0  0
    8.8750   -0.8438    0.0000 C   0  0  3  0  0  0  0  0  0  0  0  0
    8.8750   -2.4532    0.0000 C   0  0  3  0  0  0  0  0  0  0  0  0
    5.2868   -2.6553    0.0000 C   0  0  3  0  0  0  0  0  0  0  0  0
    7.0628   -2.6485    0.0000 C   0  0  0  0  0  0  0  0  0  0  0  0
    9.4586   -1.6485    0.0000 C   0  0  0  0  0  0  0  0  0  0  0  0
    5.2787   -3.6969    0.0000 C   0  0  3  0  0  0  0  0  0  0  0  0
    7.0628   -0.6485    0.0000 C   0  0  0  0  0  0  0  0  0  0  0  0
    6.1968   -2.1485    0.0000 C   0  0  0  0  0  0  0  0  0  0  0  0
    9.1857    0.1068    0.0000 C   0  0  3  0  0  0  0  0  0  0  0  0
    4.3433   -4.2467    0.0000 C   0  0  0  0  0  0  0  0  0  0  0  0
    7.9288   -0.1485    0.0000 C   0  0  0  0  0  0  0  0  0  0  0  0
    7.9288   -3.1485    0.0000 C   0  0  0  0  0  0  0  0  0  0  0  0
    6.1968   -1.1485    0.0000 C   0  0  0  0  0  0  0  0  0  0  0  0
    4.3599   -2.0913    0.0000 C   0  0  0  0  0  0  0  0  0  0  0  0
    6.1808   -4.2178    0.0000 C   0  0  0  0  0  0  0  0  0  0  0  0
    7.0789   -3.6900    0.0000 C   0  0  0  0  0  0  0  0  0  0  0  0
    3.4037   -3.7042    0.0000 C   0  0  3  0  0  0  0  0  0  0  0  0
    3.4120   -2.6192    0.0000 C   0  0  0  0  0  0  0  0  0  0  0  0
    5.2945   -1.6554    0.0000 C   0  0  0  0  0  0  0  0  0  0  0  0
   10.1642    0.3130    0.0000 C   0  0  3  0  0  0  0  0  0  0  0  0
    3.8467   -5.1146    0.0000 C   0  0  0  0  0  0  0  0  0  0  0  0
    4.8466   -5.1108    0.0000 C   0  0  0  0  0  0  0  0  0  0  0  0
    8.5179    0.8511    0.0000 C   0  0  0  0  0  0  0  0  0  0  0  0
   10.4749    1.2635    0.0000 C   0  0  0  0  0  0  0  0  0  0  0  0
   10.1642   -3.6100    0.0000 C   0  0  0  0  0  0  0  0  0  0  0  0
    9.8070    2.0078    0.0000 C   0  0  0  0  0  0  0  0  0  0  0  0
   10.4749   -4.5605    0.0000 C   0  0  0  0  0  0  0  0  0  0  0  0
   11.8106   -0.2251    0.0000 C   0  0  0  0  0  0  0  0  0  0  0  0
   10.1177    2.9583    0.0000 C   0  0  0  0  0  0  0  0  0  0  0  0
   12.4784   -0.9694    0.0000 C   0  0  0  0  0  0  0  0  0  0  0  0
   11.0962    3.1645    0.0000 C   0  0  0  0  0  0  0  0  0  0  0  0
    9.4498    3.7026    0.0000 C   0  0  0  0  0  0  0  0  0  0  0  0
    9.4875   -0.7476    0.0000 H   0  0  0  0  0  0  0  0  0  0  0  0
    9.4875   -2.5494    0.0000 H   0  0  0  0  0  0  0  0  0  0  0  0
    9.9195   -2.0632    0.0000 H   0  0  0  0  0  0  0  0  0  0  0  0
    9.9195   -1.2338    0.0000 H   0  0  0  0  0  0  0  0  0  0  0  0
    5.2811   -4.3169    0.0000 H   0  0  0  0  0  0  0  0  0  0  0  0
    7.4613   -0.1735    0.0000 H   0  0  0  0  0  0  0  0  0  0  0  0
    6.6643   -0.1735    0.0000 H   0  0  0  0  0  0  0  0  0  0  0  0
    9.3783    0.6961    0.0000 H   0  0  0  0  0  0  0  0  0  0  0  0
    8.5488   -0.1485    0.0000 H   0  0  0  0  0  0  0  0  0  0  0  0
    7.9288    0.4715    0.0000 H   0  0  0  0  0  0  0  0  0  0  0  0
    7.3088   -0.1485    0.0000 H   0  0  0  0  0  0  0  0  0  0  0  0
    7.3088   -3.1485    0.0000 H   0  0  0  0  0  0  0  0  0  0  0  0
    7.9288   -3.7685    0.0000 H   0  0  0  0  0  0  0  0  0  0  0  0
    8.5488   -3.1485    0.0000 H   0  0  0  0  0  0  0  0  0  0  0  0
    5.6598   -0.8385    0.0000 H   0  0  0  0  0  0  0  0  0  0  0  0
    4.7681   -1.6246    0.0000 H   0  0  0  0  0  0  0  0  0  0  0  0
    3.9700   -1.6092    0.0000 H   0  0  0  0  0  0  0  0  0  0  0  0
    5.7835   -4.6937    0.0000 H   0  0  0  0  0  0  0  0  0  0  0  0
    6.5818   -4.6906    0.0000 H   0  0  0  0  0  0  0  0  0  0  0  0
    7.6193   -3.9938    0.0000 H   0  0  0  0  0  0  0  0  0  0  0  0
    3.4025   -4.3242    0.0000 H   0  0  0  0  0  0  0  0  0  0  0  0
    3.2075   -2.0339    0.0000 H   0  0  0  0  0  0  0  0  0  0  0  0
    2.8004   -2.7206    0.0000 H   0  0  0  0  0  0  0  0  0  0  0  0
    5.9145   -1.6602    0.0000 H   0  0  0  0  0  0  0  0  0  0  0  0
    5.2993   -1.0354    0.0000 H   0  0  0  0  0  0  0  0  0  0  0  0
    4.6745   -1.6506    0.0000 H   0  0  0  0  0  0  0  0  0  0  0  0
    9.9716   -0.2763    0.0000 H   0  0  0  0  0  0  0  0  0  0  0  0
    3.3085   -4.8067    0.0000 H   0  0  0  0  0  0  0  0  0  0  0  0
    3.5387   -5.6527    0.0000 H   0  0  0  0  0  0  0  0  0  0  0  0
    4.3848   -5.4225    0.0000 H   0  0  0  0  0  0  0  0  0  0  0  0
    4.3109   -5.4228    0.0000 H   0  0  0  0  0  0  0  0  0  0  0  0
    5.1587   -5.6465    0.0000 H   0  0  0  0  0  0  0  0  0  0  0  0
    5.3824   -4.7987    0.0000 H   0  0  0  0  0  0  0  0  0  0  0  0
    8.9793    1.2651    0.0000 H   0  0  0  0  0  0  0  0  0  0  0  0
    8.1038    1.3125    0.0000 H   0  0  0  0  0  0  0  0  0  0  0  0
    8.0564    0.4370    0.0000 H   0  0  0  0  0  0  0  0  0  0  0  0
   11.0218    0.9715    0.0000 H   0  0  0  0  0  0  0  0  0  0  0  0
   10.8574    1.7514    0.0000 H   0  0  0  0  0  0  0  0  0  0  0  0
    2.0000   -3.8888    0.0000 H   0  0  0  0  0  0  0  0  0  0  0  0
    9.2004    1.8799    0.0000 H   0  0  0  0  0  0  0  0  0  0  0  0
    9.8856   -4.7531    0.0000 H   0  0  0  0  0  0  0  0  0  0  0  0
   10.6675   -5.1498    0.0000 H   0  0  0  0  0  0  0  0  0  0  0  0
   11.0642   -4.3679    0.0000 H   0  0  0  0  0  0  0  0  0  0  0  0
   12.0169   -1.3835    0.0000 H   0  0  0  0  0  0  0  0  0  0  0  0
   12.8925   -1.4309    0.0000 H   0  0  0  0  0  0  0  0  0  0  0  0
   12.9399   -0.5553    0.0000 H   0  0  0  0  0  0  0  0  0  0  0  0
   11.2241    2.5579    0.0000 H   0  0  0  0  0  0  0  0  0  0  0  0
   11.7029    3.2924    0.0000 H   0  0  0  0  0  0  0  0  0  0  0  0
   10.9683    3.7712    0.0000 H   0  0  0  0  0  0  0  0  0  0  0  0
    9.3465    5.1146    0.0000 H   0  0  0  0  0  0  0  0  0  0  0  0
  1 11  1  0  0  0  0
  1 34  1  0  0  0  0
  2 26  1  0  0  0  0
  2 80  1  0  0  0  0
  3 29  1  0  0  0  0
  3 37  1  0  0  0  0
  4 34  2  0  0  0  0
  5 37  2  0  0  0  0
  6 41  1  0  0  0  0
  6 91  1  0  0  0  0
  7 41  2  0  0  0  0
  8  9  1  0  0  0  0
  8 10  1  0  0  0  0
  8 16  1  0  0  0  0
  8 20  1  0  0  0  0
  9 11  1  0  0  0  0
  9 13  1  0  0  0  0
  9 21  1  0  0  0  0
 10 14  1  0  0  0  0
 10 18  1  0  0  0  0
 10 42  1  0  0  0  0
 11 14  1  0  0  0  0
 11 43  1  0  0  0  0
 12 15  1  0  0  0  0
 12 17  1  0  0  0  0
 12 23  1  0  0  0  0
 12 28  1  0  0  0  0
 13 17  1  0  0  0  0
 13 25  2  0  0  0  0
 14 44  1  0  0  0  0
 14 45  1  0  0  0  0
 15 19  1  0  0  0  0
 15 24  1  0  0  0  0
 15 46  1  0  0  0  0
 16 22  1  0  0  0  0
 16 47  1  0  0  0  0
 16 48  1  0  0  0  0
 17 22  2  0  0  0  0
 18 29  1  0  0  0  0
 18 32  1  0  0  0  0
 18 49  1  0  0  0  0
 19 26  1  0  0  0  0
 19 30  1  0  0  0  0
 19 31  1  0  0  0  0
 20 50  1  0  0  0  0
 20 51  1  0  0  0  0
 20 52  1  0  0  0  0
 21 53  1  0  0  0  0
 21 54  1  0  0  0  0
 21 55  1  0  0  0  0
 22 56  1  0  0  0  0
 23 27  1  0  0  0  0
 23 57  1  0  0  0  0
 23 58  1  0  0  0  0
 24 25  1  0  0  0  0
 24 59  1  0  0  0  0
 24 60  1  0  0  0  0
 25 61  1  0  0  0  0
 26 27  1  0  0  0  0
 26 62  1  0  0  0  0
 27 63  1  0  0  0  0
 27 64  1  0  0  0  0
 28 65  1  0  0  0  0
 28 66  1  0  0  0  0
 28 67  1  0  0  0  0
 29 33  1  0  0  0  0
 29 68  1  0  0  0  0
 30 69  1  0  0  0  0
 30 70  1  0  0  0  0
 30 71  1  0  0  0  0
 31 72  1  0  0  0  0
 31 73  1  0  0  0  0
 31 74  1  0  0  0  0
 32 75  1  0  0  0  0
 32 76  1  0  0  0  0
 32 77  1  0  0  0  0
 33 35  1  0  0  0  0
 33 78  1  0  0  0  0
 33 79  1  0  0  0  0
 34 36  1  0  0  0  0
 35 38  2  0  0  0  0
 35 81  1  0  0  0  0
 36 82  1  0  0  0  0
 36 83  1  0  0  0  0
 36 84  1  0  0  0  0
 37 39  1  0  0  0  0
 38 40  1  0  0  0  0
 38 41  1  0  0  0  0
 39 85  1  0  0  0  0
 39 86  1  0  0  0  0
 39 87  1  0  0  0  0
 40 88  1  0  0  0  0
 40 89  1  0  0  0  0
 40 90  1  0  0  0  0
M  END
> <PUBCHEM_COMPOUND_CID>
13916711

> <PUBCHEM_COMPOUND_CANONICALIZED>
1

> <PUBCHEM_CACTVS_COMPLEXITY>
1190

> <PUBCHEM_CACTVS_HBOND_ACCEPTOR>
7

> <PUBCHEM_CACTVS_HBOND_DONOR>
2

> <PUBCHEM_CACTVS_ROTATABLE_BOND>
9

> <PUBCHEM_CACTVS_SUBSKEYS>
AAADcfB8OAAAAAAAAAAAAAAAAAAAAYAAAAAwQIAAAAAAAECAAAAAGgAACAAADxSggAICCAAABgCIAiDSCAAAAAAgAAAACAEAAEgIFAIAAQACUAAEwAAIkYOA4PwPgAAAAAAAAABAAAYAADAAAYAADAAAAA==

> <PUBCHEM_IUPAC_OPENEYE_NAME>
(E)-5-acetoxy-6-(15-acetoxy-3-hydroxy-4,4,10,13,14-pentamethyl-2,3,5,6,12,15,16,17-octahydro-1H-cyclopenta[a]phenanthren-17-yl)-2-methyl-hept-2-enoic acid

> <PUBCHEM_IUPAC_CAS_NAME>
(E)-5-acetyloxy-6-(15-acetyloxy-3-hydroxy-4,4,10,13,14-pentamethyl-2,3,5,6,12,15,16,17-octahydro-1H-cyclopenta[a]phenanthren-17-yl)-2-methyl-2-heptenoic acid

> <PUBCHEM_IUPAC_NAME_MARKUP>
(<I>E</I>)-5-acetyloxy-6-(15-acetyloxy-3-hydroxy-4,4,10,13,14-pentamethyl-2,3,5,6,12,15,16,17-octahydro-1<I>H</I>-cyclopenta[a]phenanthren-17-yl)-2-methylhept-2-enoic acid

> <PUBCHEM_IUPAC_NAME>
(E)-5-acetyloxy-6-(15-acetyloxy-3-hydroxy-4,4,10,13,14-pentamethyl-2,3,5,6,12,15,16,17-octahydro-1H-cyclopenta[a]phenanthren-17-yl)-2-methylhept-2-enoic acid

> <PUBCHEM_IUPAC_SYSTEMATIC_NAME>
(E)-5-acetyloxy-6-(15-acetyloxy-4,4,10,13,14-pentamethyl-3-oxidanyl-2,3,5,6,12,15,16,17-octahydro-1H-cyclopenta[a]phenanthren-17-yl)-2-methyl-hept-2-enoic acid

> <PUBCHEM_IUPAC_TRADITIONAL_NAME>
(E)-5-acetoxy-6-(15-acetoxy-3-hydroxy-4,4,10,13,14-pentamethyl-2,3,5,6,12,15,16,17-octahydro-1H-cyclopenta[a]phenanthren-17-yl)-2-methyl-hept-2-enoic acid

> <PUBCHEM_IUPAC_INCHI>
InChI=1S/C34H50O7/c1-19(30(38)39)10-12-26(40-21(3)35)20(2)25-18-29(41-22(4)36)34(9)24-11-13-27-31(5,6)28(37)15-16-32(27,7)23(24)14-17-33(25,34)8/h10-11,14,20,25-29,37H,12-13,15-18H2,1-9H3,(H,38,39)/b19-10+

> <PUBCHEM_IUPAC_INCHIKEY>
KQKZINUOFUEGEI-VXLYETTFSA-N

> <PUBCHEM_XLOGP3_AA>
6

> <PUBCHEM_EXACT_MASS>
570.355654

> <PUBCHEM_MOLECULAR_FORMULA>
C34H50O7

> <PUBCHEM_MOLECULAR_WEIGHT>
570.8

> <PUBCHEM_OPENEYE_CAN_SMILES>
CC(C1CC(C2(C1(CC=C3C2=CCC4C3(CCC(C4(C)C)O)C)C)C)OC(=O)C)C(CC=C(C)C(=O)O)OC(=O)C

> <PUBCHEM_OPENEYE_ISO_SMILES>
CC(C1CC(C2(C1(CC=C3C2=CCC4C3(CCC(C4(C)C)O)C)C)C)OC(=O)C)C(C/C=C(\C)/C(=O)O)OC(=O)C

> <PUBCHEM_CACTVS_TPSA>
110

> <PUBCHEM_MONOISOTOPIC_WEIGHT>
570.355654

> <PUBCHEM_TOTAL_CHARGE>
0

> <PUBCHEM_HEAVY_ATOM_COUNT>
41

> <PUBCHEM_ATOM_DEF_STEREO_COUNT>
0

> <PUBCHEM_ATOM_UDEF_STEREO_COUNT>
9

> <PUBCHEM_BOND_DEF_STEREO_COUNT>
1

> <PUBCHEM_BOND_UDEF_STEREO_COUNT>
0

> <PUBCHEM_ISOTOPIC_ATOM_COUNT>
0

> <PUBCHEM_COMPONENT_COUNT>
1

> <PUBCHEM_CACTVS_TAUTO_COUNT>
-1

> <PUBCHEM_COORDINATE_TYPE>
1
5
255

> <PUBCHEM_BONDANNOTATIONS>
11  1  3
10  14  3
12  28  3
15  24  3
18  32  3
26  2  3
29  33  3
8  20  3
9  21  3

$$$$
