75233007
  -OEChem-09122004482D

 85 88  0     1  0  0  0  0  0999 V2000
    8.6500   -3.2133    0.0000 O   0  0  0  0  0  0  0  0  0  0  0  0
    4.7950   -0.4580    0.0000 O   0  0  0  0  0  0  0  0  0  0  0  0
    7.4149   -3.9895    0.0000 O   0  0  0  0  0  0  0  0  0  0  0  0
    2.0000   -4.0104    0.0000 O   0  0  0  0  0  0  0  0  0  0  0  0
    9.2713    2.1982    0.0000 O   0  0  0  0  0  0  0  0  0  0  0  0
   12.5175    3.7674    0.0000 O   0  0  0  0  0  0  0  0  0  0  0  0
   12.8747    2.0726    0.0000 O   0  0  0  0  0  0  0  0  0  0  0  0
    7.3931   -0.9580    0.0000 C   0  0  3  0  0  0  0  0  0  0  0  0
    7.3931   -1.9580    0.0000 C   0  0  3  0  0  0  0  0  0  0  0  0
    8.3393   -0.6533    0.0000 C   0  0  3  0  0  0  0  0  0  0  0  0
    8.3393   -2.2628    0.0000 C   0  0  3  0  0  0  0  0  0  0  0  0
    8.9229   -1.4580    0.0000 C   0  0  0  0  0  0  0  0  0  0  0  0
    6.5271   -2.4580    0.0000 C   0  0  0  0  0  0  0  0  0  0  0  0
    4.7510   -2.4649    0.0000 C   0  0  3  0  0  0  0  0  0  0  0  0
    6.5271   -0.4580    0.0000 C   0  0  0  0  0  0  0  0  0  0  0  0
    5.6610   -1.9580    0.0000 C   0  0  0  0  0  0  0  0  0  0  0  0
    4.7430   -3.5065    0.0000 C   0  0  3  0  0  0  0  0  0  0  0  0
    8.6500    0.2972    0.0000 C   0  0  3  0  0  0  0  0  0  0  0  0
    7.3931    0.0420    0.0000 C   0  0  0  0  0  0  0  0  0  0  0  0
    7.3931   -2.9580    0.0000 C   0  0  0  0  0  0  0  0  0  0  0  0
    5.6610   -0.9580    0.0000 C   0  0  0  0  0  0  0  0  0  0  0  0
    3.8076   -4.0562    0.0000 C   0  0  0  0  0  0  0  0  0  0  0  0
    5.6451   -4.0273    0.0000 C   0  0  0  0  0  0  0  0  0  0  0  0
    6.5431   -3.4996    0.0000 C   0  0  0  0  0  0  0  0  0  0  0  0
    3.8242   -1.9008    0.0000 C   0  0  0  0  0  0  0  0  0  0  0  0
    4.7587   -1.4649    0.0000 C   0  0  0  0  0  0  0  0  0  0  0  0
    2.8763   -2.4288    0.0000 C   0  0  0  0  0  0  0  0  0  0  0  0
    9.6285    0.5034    0.0000 C   0  0  0  0  0  0  0  0  0  0  0  0
    2.8680   -3.5137    0.0000 C   0  0  0  0  0  0  0  0  0  0  0  0
    7.9821    1.0415    0.0000 C   0  0  0  0  0  0  0  0  0  0  0  0
    3.3109   -4.9242    0.0000 C   0  0  0  0  0  0  0  0  0  0  0  0
    4.3109   -4.9203    0.0000 C   0  0  0  0  0  0  0  0  0  0  0  0
    9.9391    1.4540    0.0000 C   0  0  0  0  0  0  0  0  0  0  0  0
   10.9176    1.6602    0.0000 C   0  0  0  0  0  0  0  0  0  0  0  0
   11.2283    2.6107    0.0000 C   0  0  3  0  0  0  0  0  0  0  0  0
   10.5605    3.3550    0.0000 C   0  0  0  0  0  0  0  0  0  0  0  0
   12.2068    2.8169    0.0000 C   0  0  0  0  0  0  0  0  0  0  0  0
   13.4960    3.9736    0.0000 C   0  0  0  0  0  0  0  0  0  0  0  0
   13.8066    4.9242    0.0000 C   0  0  0  0  0  0  0  0  0  0  0  0
    8.9518   -0.5571    0.0000 H   0  0  0  0  0  0  0  0  0  0  0  0
    7.9018   -2.7021    0.0000 H   0  0  0  0  0  0  0  0  0  0  0  0
    9.3838   -1.8728    0.0000 H   0  0  0  0  0  0  0  0  0  0  0  0
    9.3838   -1.0433    0.0000 H   0  0  0  0  0  0  0  0  0  0  0  0
    6.9256    0.0169    0.0000 H   0  0  0  0  0  0  0  0  0  0  0  0
    6.1285    0.0169    0.0000 H   0  0  0  0  0  0  0  0  0  0  0  0
    4.7454   -4.1265    0.0000 H   0  0  0  0  0  0  0  0  0  0  0  0
    8.0433    0.1694    0.0000 H   0  0  0  0  0  0  0  0  0  0  0  0
    8.0131    0.0420    0.0000 H   0  0  0  0  0  0  0  0  0  0  0  0
    7.3931    0.6620    0.0000 H   0  0  0  0  0  0  0  0  0  0  0  0
    6.7731    0.0420    0.0000 H   0  0  0  0  0  0  0  0  0  0  0  0
    6.7731   -2.9580    0.0000 H   0  0  0  0  0  0  0  0  0  0  0  0
    7.3931   -3.5780    0.0000 H   0  0  0  0  0  0  0  0  0  0  0  0
    8.0131   -2.9580    0.0000 H   0  0  0  0  0  0  0  0  0  0  0  0
    5.2478   -4.5033    0.0000 H   0  0  0  0  0  0  0  0  0  0  0  0
    6.0460   -4.5002    0.0000 H   0  0  0  0  0  0  0  0  0  0  0  0
    4.2324   -1.4342    0.0000 H   0  0  0  0  0  0  0  0  0  0  0  0
    3.4343   -1.4188    0.0000 H   0  0  0  0  0  0  0  0  0  0  0  0
    5.3787   -1.4697    0.0000 H   0  0  0  0  0  0  0  0  0  0  0  0
    4.7635   -0.8449    0.0000 H   0  0  0  0  0  0  0  0  0  0  0  0
    4.1388   -1.4601    0.0000 H   0  0  0  0  0  0  0  0  0  0  0  0
    2.6718   -1.8435    0.0000 H   0  0  0  0  0  0  0  0  0  0  0  0
    2.2647   -2.5301    0.0000 H   0  0  0  0  0  0  0  0  0  0  0  0
    9.6490   -0.1162    0.0000 H   0  0  0  0  0  0  0  0  0  0  0  0
   10.2423    0.4161    0.0000 H   0  0  0  0  0  0  0  0  0  0  0  0
    9.2566   -3.3412    0.0000 H   0  0  0  0  0  0  0  0  0  0  0  0
    8.4436    1.4556    0.0000 H   0  0  0  0  0  0  0  0  0  0  0  0
    7.5681    1.5030    0.0000 H   0  0  0  0  0  0  0  0  0  0  0  0
    7.5207    0.6274    0.0000 H   0  0  0  0  0  0  0  0  0  0  0  0
    2.7728   -4.6162    0.0000 H   0  0  0  0  0  0  0  0  0  0  0  0
    3.0030   -5.4623    0.0000 H   0  0  0  0  0  0  0  0  0  0  0  0
    3.8490   -5.2321    0.0000 H   0  0  0  0  0  0  0  0  0  0  0  0
    3.7752   -5.2324    0.0000 H   0  0  0  0  0  0  0  0  0  0  0  0
    4.6230   -5.4560    0.0000 H   0  0  0  0  0  0  0  0  0  0  0  0
    4.8466   -4.6082    0.0000 H   0  0  0  0  0  0  0  0  0  0  0  0
   10.9382    1.0405    0.0000 H   0  0  0  0  0  0  0  0  0  0  0  0
   11.5315    1.5728    0.0000 H   0  0  0  0  0  0  0  0  0  0  0  0
   11.4209    3.2000    0.0000 H   0  0  0  0  0  0  0  0  0  0  0  0
   11.0219    3.7690    0.0000 H   0  0  0  0  0  0  0  0  0  0  0  0
   10.1464    3.8164    0.0000 H   0  0  0  0  0  0  0  0  0  0  0  0
   10.0990    2.9409    0.0000 H   0  0  0  0  0  0  0  0  0  0  0  0
   13.5165    3.3540    0.0000 H   0  0  0  0  0  0  0  0  0  0  0  0
   14.1098    3.8863    0.0000 H   0  0  0  0  0  0  0  0  0  0  0  0
   14.3960    4.7316    0.0000 H   0  0  0  0  0  0  0  0  0  0  0  0
   13.9993    5.5135    0.0000 H   0  0  0  0  0  0  0  0  0  0  0  0
   13.2173    5.1168    0.0000 H   0  0  0  0  0  0  0  0  0  0  0  0
  1 11  1  0  0  0  0
  1 65  1  0  0  0  0
  2 21  2  0  0  0  0
  3 24  2  0  0  0  0
  4 29  2  0  0  0  0
  5 33  2  0  0  0  0
  6 37  1  0  0  0  0
  6 38  1  0  0  0  0
  7 37  2  0  0  0  0
  8  9  1  0  0  0  0
  8 10  1  0  0  0  0
  8 15  1  0  0  0  0
  8 19  1  0  0  0  0
  9 11  1  0  0  0  0
  9 13  1  0  0  0  0
  9 20  1  0  0  0  0
 10 12  1  0  0  0  0
 10 18  1  0  0  0  0
 10 40  1  0  0  0  0
 11 12  1  0  0  0  0
 11 41  1  0  0  0  0
 12 42  1  0  0  0  0
 12 43  1  0  0  0  0
 13 16  2  0  0  0  0
 13 24  1  0  0  0  0
 14 16  1  0  0  0  0
 14 17  1  0  0  0  0
 14 25  1  0  0  0  0
 14 26  1  0  0  0  0
 15 21  1  0  0  0  0
 15 44  1  0  0  0  0
 15 45  1  0  0  0  0
 16 21  1  0  0  0  0
 17 22  1  0  0  0  0
 17 23  1  0  0  0  0
 17 46  1  0  0  0  0
 18 28  1  0  0  0  0
 18 30  1  0  0  0  0
 18 47  1  0  0  0  0
 19 48  1  0  0  0  0
 19 49  1  0  0  0  0
 19 50  1  0  0  0  0
 20 51  1  0  0  0  0
 20 52  1  0  0  0  0
 20 53  1  0  0  0  0
 22 29  1  0  0  0  0
 22 31  1  0  0  0  0
 22 32  1  0  0  0  0
 23 24  1  0  0  0  0
 23 54  1  0  0  0  0
 23 55  1  0  0  0  0
 25 27  1  0  0  0  0
 25 56  1  0  0  0  0
 25 57  1  0  0  0  0
 26 58  1  0  0  0  0
 26 59  1  0  0  0  0
 26 60  1  0  0  0  0
 27 29  1  0  0  0  0
 27 61  1  0  0  0  0
 27 62  1  0  0  0  0
 28 33  1  0  0  0  0
 28 63  1  0  0  0  0
 28 64  1  0  0  0  0
 30 66  1  0  0  0  0
 30 67  1  0  0  0  0
 30 68  1  0  0  0  0
 31 69  1  0  0  0  0
 31 70  1  0  0  0  0
 31 71  1  0  0  0  0
 32 72  1  0  0  0  0
 32 73  1  0  0  0  0
 32 74  1  0  0  0  0
 33 34  1  0  0  0  0
 34 35  1  0  0  0  0
 34 75  1  0  0  0  0
 34 76  1  0  0  0  0
 35 36  1  0  0  0  0
 35 37  1  0  0  0  0
 35 77  1  0  0  0  0
 36 78  1  0  0  0  0
 36 79  1  0  0  0  0
 36 80  1  0  0  0  0
 38 39  1  0  0  0  0
 38 81  1  0  0  0  0
 38 82  1  0  0  0  0
 39 83  1  0  0  0  0
 39 84  1  0  0  0  0
 39 85  1  0  0  0  0
M  END
> <PUBCHEM_COMPOUND_CID>
75233007

> <PUBCHEM_COMPOUND_CANONICALIZED>
1

> <PUBCHEM_CACTVS_COMPLEXITY>
1150

> <PUBCHEM_CACTVS_HBOND_ACCEPTOR>
7

> <PUBCHEM_CACTVS_HBOND_DONOR>
1

> <PUBCHEM_CACTVS_ROTATABLE_BOND>
8

> <PUBCHEM_CACTVS_SUBSKEYS>
AAADcfB8OAAAAAAAAAAAAAAAAAAAAYAAAAAwQIAAAAAAAEDAAAAAGgAACAAADxSggAICCAAABgCIAoDQCAAAAAAgAAAACAEAAEgAEBIAAAACQAAEwAAIAQOLzvDvgAAAAAAAAAAAAAQAACAAAYAADAAAAA==

> <PUBCHEM_IUPAC_OPENEYE_NAME>
ethyl 6-(15-hydroxy-4,4,10,13,14-pentamethyl-3,7,11-trioxo-1,2,5,6,12,15,16,17-octahydrocyclopenta[a]phenanthren-17-yl)-2-methyl-4-oxo-heptanoate

> <PUBCHEM_IUPAC_CAS_NAME>
6-(15-hydroxy-4,4,10,13,14-pentamethyl-3,7,11-trioxo-1,2,5,6,12,15,16,17-octahydrocyclopenta[a]phenanthren-17-yl)-2-methyl-4-oxoheptanoic acid ethyl ester

> <PUBCHEM_IUPAC_NAME_MARKUP>
ethyl 6-(15-hydroxy-4,4,10,13,14-pentamethyl-3,7,11-trioxo-1,2,5,6,12,15,16,17-octahydrocyclopenta[a]phenanthren-17-yl)-2-methyl-4-oxoheptanoate

> <PUBCHEM_IUPAC_NAME>
ethyl 6-(15-hydroxy-4,4,10,13,14-pentamethyl-3,7,11-trioxo-1,2,5,6,12,15,16,17-octahydrocyclopenta[a]phenanthren-17-yl)-2-methyl-4-oxoheptanoate

> <PUBCHEM_IUPAC_SYSTEMATIC_NAME>
ethyl 2-methyl-4-oxidanylidene-6-[4,4,10,13,14-pentamethyl-15-oxidanyl-3,7,11-tris(oxidanylidene)-1,2,5,6,12,15,16,17-octahydrocyclopenta[a]phenanthren-17-yl]heptanoate

> <PUBCHEM_IUPAC_TRADITIONAL_NAME>
6-(15-hydroxy-3,7,11-triketo-4,4,10,13,14-pentamethyl-1,2,5,6,12,15,16,17-octahydrocyclopenta[a]phenanthren-17-yl)-4-keto-2-methyl-enanthic acid ethyl ester

> <PUBCHEM_IUPAC_INCHI>
InChI=1S/C32H46O7/c1-9-39-28(38)18(3)13-19(33)12-17(2)20-14-25(37)32(8)27-21(34)15-23-29(4,5)24(36)10-11-30(23,6)26(27)22(35)16-31(20,32)7/h17-18,20,23,25,37H,9-16H2,1-8H3

> <PUBCHEM_IUPAC_INCHIKEY>
MOGCKMACSLYDKK-UHFFFAOYSA-N

> <PUBCHEM_XLOGP3_AA>
3.3

> <PUBCHEM_EXACT_MASS>
542.324354

> <PUBCHEM_MOLECULAR_FORMULA>
C32H46O7

> <PUBCHEM_MOLECULAR_WEIGHT>
542.7

> <PUBCHEM_OPENEYE_CAN_SMILES>
CCOC(=O)C(C)CC(=O)CC(C)C1CC(C2(C1(CC(=O)C3=C2C(=O)CC4C3(CCC(=O)C4(C)C)C)C)C)O

> <PUBCHEM_OPENEYE_ISO_SMILES>
CCOC(=O)C(C)CC(=O)CC(C)C1CC(C2(C1(CC(=O)C3=C2C(=O)CC4C3(CCC(=O)C4(C)C)C)C)C)O

> <PUBCHEM_CACTVS_TPSA>
115

> <PUBCHEM_MONOISOTOPIC_WEIGHT>
542.324354

> <PUBCHEM_TOTAL_CHARGE>
0

> <PUBCHEM_HEAVY_ATOM_COUNT>
39

> <PUBCHEM_ATOM_DEF_STEREO_COUNT>
0

> <PUBCHEM_ATOM_UDEF_STEREO_COUNT>
8

> <PUBCHEM_BOND_DEF_STEREO_COUNT>
0

> <PUBCHEM_BOND_UDEF_STEREO_COUNT>
0

> <PUBCHEM_ISOTOPIC_ATOM_COUNT>
0

> <PUBCHEM_COMPONENT_COUNT>
1

> <PUBCHEM_CACTVS_TAUTO_COUNT>
-1

> <PUBCHEM_COORDINATE_TYPE>
1
5
255

> <PUBCHEM_BONDANNOTATIONS>
11  1  3
10  12  3
14  26  3
17  23  3
18  30  3
35  36  3
8  19  3
9  20  3

$$$$
