76537133
  -OEChem-09112013202D

 80 83  0     1  0  0  0  0  0999 V2000
    7.0628    1.0564    0.0000 O   0  0  0  0  0  0  0  0  0  0  0  0
    9.1857   -2.6989    0.0000 O   0  0  0  0  0  0  0  0  0  0  0  0
    2.5357   -3.4959    0.0000 O   0  0  0  0  0  0  0  0  0  0  0  0
    5.3307    0.0564    0.0000 O   0  0  0  0  0  0  0  0  0  0  0  0
    7.9506   -3.4751    0.0000 O   0  0  0  0  0  0  0  0  0  0  0  0
    9.8070    2.7127    0.0000 O   0  0  0  0  0  0  0  0  0  0  0  0
   13.0532    4.2819    0.0000 O   0  0  0  0  0  0  0  0  0  0  0  0
   13.4104    2.5870    0.0000 O   0  0  0  0  0  0  0  0  0  0  0  0
    7.9288   -0.4436    0.0000 C   0  0  3  0  0  0  0  0  0  0  0  0
    7.9288   -1.4436    0.0000 C   0  0  3  0  0  0  0  0  0  0  0  0
    5.2868   -1.9504    0.0000 C   0  0  3  0  0  0  0  0  0  0  0  0
    8.8750   -0.1389    0.0000 C   0  0  3  0  0  0  0  0  0  0  0  0
    5.2787   -2.9920    0.0000 C   0  0  3  0  0  0  0  0  0  0  0  0
    7.0628   -1.9436    0.0000 C   0  0  0  0  0  0  0  0  0  0  0  0
    6.1968   -1.4436    0.0000 C   0  0  0  0  0  0  0  0  0  0  0  0
    4.3433   -3.5418    0.0000 C   0  0  0  0  0  0  0  0  0  0  0  0
    7.0628    0.0564    0.0000 C   0  0  3  0  0  0  0  0  0  0  0  0
    9.4586   -0.9436    0.0000 C   0  0  0  0  0  0  0  0  0  0  0  0
    8.8750   -1.7483    0.0000 C   0  0  0  0  0  0  0  0  0  0  0  0
    4.3599   -1.3864    0.0000 C   0  0  0  0  0  0  0  0  0  0  0  0
    6.1808   -3.5129    0.0000 C   0  0  0  0  0  0  0  0  0  0  0  0
    6.1968   -0.4436    0.0000 C   0  0  0  0  0  0  0  0  0  0  0  0
    9.1857    0.8116    0.0000 C   0  0  3  0  0  0  0  0  0  0  0  0
    3.4037   -2.9993    0.0000 C   0  0  3  0  0  0  0  0  0  0  0  0
    7.9288    0.5564    0.0000 C   0  0  0  0  0  0  0  0  0  0  0  0
    7.0789   -2.9851    0.0000 C   0  0  0  0  0  0  0  0  0  0  0  0
    7.9288   -2.4436    0.0000 C   0  0  0  0  0  0  0  0  0  0  0  0
    3.4120   -1.9143    0.0000 C   0  0  0  0  0  0  0  0  0  0  0  0
    5.2945   -0.9505    0.0000 C   0  0  0  0  0  0  0  0  0  0  0  0
    3.8467   -4.4097    0.0000 C   0  0  0  0  0  0  0  0  0  0  0  0
    4.8466   -4.4059    0.0000 C   0  0  0  0  0  0  0  0  0  0  0  0
   10.1642    1.0179    0.0000 C   0  0  0  0  0  0  0  0  0  0  0  0
    8.5179    1.5560    0.0000 C   0  0  0  0  0  0  0  0  0  0  0  0
   10.4749    1.9684    0.0000 C   0  0  0  0  0  0  0  0  0  0  0  0
   11.4534    2.1746    0.0000 C   0  0  0  0  0  0  0  0  0  0  0  0
   11.7640    3.1251    0.0000 C   0  0  3  0  0  0  0  0  0  0  0  0
   11.0962    3.8694    0.0000 C   0  0  0  0  0  0  0  0  0  0  0  0
   12.7425    3.3314    0.0000 C   0  0  0  0  0  0  0  0  0  0  0  0
    9.4875   -0.0427    0.0000 H   0  0  0  0  0  0  0  0  0  0  0  0
    5.2811   -3.6120    0.0000 H   0  0  0  0  0  0  0  0  0  0  0  0
    6.5259    0.3664    0.0000 H   0  0  0  0  0  0  0  0  0  0  0  0
    9.9195   -1.3583    0.0000 H   0  0  0  0  0  0  0  0  0  0  0  0
    9.9195   -0.5289    0.0000 H   0  0  0  0  0  0  0  0  0  0  0  0
    4.7681   -0.9197    0.0000 H   0  0  0  0  0  0  0  0  0  0  0  0
    3.9700   -0.9043    0.0000 H   0  0  0  0  0  0  0  0  0  0  0  0
    5.7835   -3.9888    0.0000 H   0  0  0  0  0  0  0  0  0  0  0  0
    6.5818   -3.9858    0.0000 H   0  0  0  0  0  0  0  0  0  0  0  0
    9.3783    1.4010    0.0000 H   0  0  0  0  0  0  0  0  0  0  0  0
    3.4025   -3.6193    0.0000 H   0  0  0  0  0  0  0  0  0  0  0  0
    8.5488    0.5564    0.0000 H   0  0  0  0  0  0  0  0  0  0  0  0
    7.9288    1.1764    0.0000 H   0  0  0  0  0  0  0  0  0  0  0  0
    7.3088    0.5564    0.0000 H   0  0  0  0  0  0  0  0  0  0  0  0
    7.3088   -2.4436    0.0000 H   0  0  0  0  0  0  0  0  0  0  0  0
    7.9288   -3.0636    0.0000 H   0  0  0  0  0  0  0  0  0  0  0  0
    8.5488   -2.4436    0.0000 H   0  0  0  0  0  0  0  0  0  0  0  0
    3.2075   -1.3290    0.0000 H   0  0  0  0  0  0  0  0  0  0  0  0
    2.8004   -2.0157    0.0000 H   0  0  0  0  0  0  0  0  0  0  0  0
    5.9145   -0.9553    0.0000 H   0  0  0  0  0  0  0  0  0  0  0  0
    5.2993   -0.3305    0.0000 H   0  0  0  0  0  0  0  0  0  0  0  0
    4.6745   -0.9457    0.0000 H   0  0  0  0  0  0  0  0  0  0  0  0
    3.3085   -4.1018    0.0000 H   0  0  0  0  0  0  0  0  0  0  0  0
    3.5387   -4.9478    0.0000 H   0  0  0  0  0  0  0  0  0  0  0  0
    4.3848   -4.7176    0.0000 H   0  0  0  0  0  0  0  0  0  0  0  0
    4.3109   -4.7179    0.0000 H   0  0  0  0  0  0  0  0  0  0  0  0
    5.1587   -4.9416    0.0000 H   0  0  0  0  0  0  0  0  0  0  0  0
    5.3824   -4.0938    0.0000 H   0  0  0  0  0  0  0  0  0  0  0  0
   10.1848    0.3982    0.0000 H   0  0  0  0  0  0  0  0  0  0  0  0
   10.7780    0.9305    0.0000 H   0  0  0  0  0  0  0  0  0  0  0  0
    8.9793    1.9700    0.0000 H   0  0  0  0  0  0  0  0  0  0  0  0
    8.1038    2.0174    0.0000 H   0  0  0  0  0  0  0  0  0  0  0  0
    8.0564    1.1419    0.0000 H   0  0  0  0  0  0  0  0  0  0  0  0
    6.5259    1.3664    0.0000 H   0  0  0  0  0  0  0  0  0  0  0  0
    2.0000   -3.1839    0.0000 H   0  0  0  0  0  0  0  0  0  0  0  0
   11.4739    1.5550    0.0000 H   0  0  0  0  0  0  0  0  0  0  0  0
   12.0672    2.0873    0.0000 H   0  0  0  0  0  0  0  0  0  0  0  0
   11.1574    2.9973    0.0000 H   0  0  0  0  0  0  0  0  0  0  0  0
   11.5577    4.2835    0.0000 H   0  0  0  0  0  0  0  0  0  0  0  0
   10.6821    4.3309    0.0000 H   0  0  0  0  0  0  0  0  0  0  0  0
   10.6347    3.4554    0.0000 H   0  0  0  0  0  0  0  0  0  0  0  0
   13.6599    4.4097    0.0000 H   0  0  0  0  0  0  0  0  0  0  0  0
  1 17  1  0  0  0  0
  1 72  1  0  0  0  0
  2 19  2  0  0  0  0
  3 24  1  0  0  0  0
  3 73  1  0  0  0  0
  4 22  2  0  0  0  0
  5 26  2  0  0  0  0
  6 34  2  0  0  0  0
  7 38  1  0  0  0  0
  7 80  1  0  0  0  0
  8 38  2  0  0  0  0
  9 10  1  0  0  0  0
  9 12  1  0  0  0  0
  9 17  1  0  0  0  0
  9 25  1  0  0  0  0
 10 14  1  0  0  0  0
 10 19  1  0  0  0  0
 10 27  1  0  0  0  0
 11 13  1  0  0  0  0
 11 15  1  0  0  0  0
 11 20  1  0  0  0  0
 11 29  1  0  0  0  0
 12 18  1  0  0  0  0
 12 23  1  0  0  0  0
 12 39  1  0  0  0  0
 13 16  1  0  0  0  0
 13 21  1  0  0  0  0
 13 40  1  0  0  0  0
 14 15  2  0  0  0  0
 14 26  1  0  0  0  0
 15 22  1  0  0  0  0
 16 24  1  0  0  0  0
 16 30  1  0  0  0  0
 16 31  1  0  0  0  0
 17 22  1  0  0  0  0
 17 41  1  0  0  0  0
 18 19  1  0  0  0  0
 18 42  1  0  0  0  0
 18 43  1  0  0  0  0
 20 28  1  0  0  0  0
 20 44  1  0  0  0  0
 20 45  1  0  0  0  0
 21 26  1  0  0  0  0
 21 46  1  0  0  0  0
 21 47  1  0  0  0  0
 23 32  1  0  0  0  0
 23 33  1  0  0  0  0
 23 48  1  0  0  0  0
 24 28  1  0  0  0  0
 24 49  1  0  0  0  0
 25 50  1  0  0  0  0
 25 51  1  0  0  0  0
 25 52  1  0  0  0  0
 27 53  1  0  0  0  0
 27 54  1  0  0  0  0
 27 55  1  0  0  0  0
 28 56  1  0  0  0  0
 28 57  1  0  0  0  0
 29 58  1  0  0  0  0
 29 59  1  0  0  0  0
 29 60  1  0  0  0  0
 30 61  1  0  0  0  0
 30 62  1  0  0  0  0
 30 63  1  0  0  0  0
 31 64  1  0  0  0  0
 31 65  1  0  0  0  0
 31 66  1  0  0  0  0
 32 34  1  0  0  0  0
 32 67  1  0  0  0  0
 32 68  1  0  0  0  0
 33 69  1  0  0  0  0
 33 70  1  0  0  0  0
 33 71  1  0  0  0  0
 34 35  1  0  0  0  0
 35 36  1  0  0  0  0
 35 74  1  0  0  0  0
 35 75  1  0  0  0  0
 36 37  1  0  0  0  0
 36 38  1  0  0  0  0
 36 76  1  0  0  0  0
 37 77  1  0  0  0  0
 37 78  1  0  0  0  0
 37 79  1  0  0  0  0
M  END
> <PUBCHEM_COMPOUND_CID>
76537133

> <PUBCHEM_COMPOUND_CANONICALIZED>
1

> <PUBCHEM_CACTVS_COMPLEXITY>
1150

> <PUBCHEM_CACTVS_HBOND_ACCEPTOR>
8

> <PUBCHEM_CACTVS_HBOND_DONOR>
3

> <PUBCHEM_CACTVS_ROTATABLE_BOND>
6

> <PUBCHEM_CACTVS_SUBSKEYS>
AAADcfB4PAAAAAAAAAAAAAAAAAAAAYAAAAAwQIAAAAAAAEDAAAAAGgAACAAADxSggAICCAAAAgCIAoDQCAIAAAAgAAAACAFAAEgAEBIAAAAAQAAEwAAIAQOLzvDvgAAAAAAAAABAAAYAADAAAQAACAAAAA==

> <PUBCHEM_IUPAC_OPENEYE_NAME>
6-(3,12-dihydroxy-4,4,10,13,14-pentamethyl-7,11,15-trioxo-1,2,3,5,6,12,16,17-octahydrocyclopenta[a]phenanthren-17-yl)-2-methyl-4-oxo-heptanoic acid

> <PUBCHEM_IUPAC_CAS_NAME>
6-(3,12-dihydroxy-4,4,10,13,14-pentamethyl-7,11,15-trioxo-1,2,3,5,6,12,16,17-octahydrocyclopenta[a]phenanthren-17-yl)-2-methyl-4-oxoheptanoic acid

> <PUBCHEM_IUPAC_NAME_MARKUP>
6-(3,12-dihydroxy-4,4,10,13,14-pentamethyl-7,11,15-trioxo-1,2,3,5,6,12,16,17-octahydrocyclopenta[a]phenanthren-17-yl)-2-methyl-4-oxoheptanoic acid

> <PUBCHEM_IUPAC_NAME>
6-(3,12-dihydroxy-4,4,10,13,14-pentamethyl-7,11,15-trioxo-1,2,3,5,6,12,16,17-octahydrocyclopenta[a]phenanthren-17-yl)-2-methyl-4-oxoheptanoic acid

> <PUBCHEM_IUPAC_SYSTEMATIC_NAME>
2-methyl-4-oxidanylidene-6-[4,4,10,13,14-pentamethyl-3,12-bis(oxidanyl)-7,11,15-tris(oxidanylidene)-1,2,3,5,6,12,16,17-octahydrocyclopenta[a]phenanthren-17-yl]heptanoic acid

> <PUBCHEM_IUPAC_TRADITIONAL_NAME>
6-(3,12-dihydroxy-7,11,15-triketo-4,4,10,13,14-pentamethyl-1,2,3,5,6,12,16,17-octahydrocyclopenta[a]phenanthren-17-yl)-4-keto-2-methyl-enanthic acid

> <PUBCHEM_IUPAC_INCHI>
InChI=1S/C30H42O8/c1-14(10-16(31)11-15(2)26(37)38)17-12-21(34)30(7)22-18(32)13-19-27(3,4)20(33)8-9-28(19,5)23(22)24(35)25(36)29(17,30)6/h14-15,17,19-20,25,33,36H,8-13H2,1-7H3,(H,37,38)

> <PUBCHEM_IUPAC_INCHIKEY>
BTYTWXWAFWKSTA-UHFFFAOYSA-N

> <PUBCHEM_XLOGP3_AA>
2

> <PUBCHEM_EXACT_MASS>
530.287968

> <PUBCHEM_MOLECULAR_FORMULA>
C30H42O8

> <PUBCHEM_MOLECULAR_WEIGHT>
530.6

> <PUBCHEM_OPENEYE_CAN_SMILES>
CC(CC(=O)CC(C)C(=O)O)C1CC(=O)C2(C1(C(C(=O)C3=C2C(=O)CC4C3(CCC(C4(C)C)O)C)O)C)C

> <PUBCHEM_OPENEYE_ISO_SMILES>
CC(CC(=O)CC(C)C(=O)O)C1CC(=O)C2(C1(C(C(=O)C3=C2C(=O)CC4C3(CCC(C4(C)C)O)C)O)C)C

> <PUBCHEM_CACTVS_TPSA>
146

> <PUBCHEM_MONOISOTOPIC_WEIGHT>
530.287968

> <PUBCHEM_TOTAL_CHARGE>
0

> <PUBCHEM_HEAVY_ATOM_COUNT>
38

> <PUBCHEM_ATOM_DEF_STEREO_COUNT>
0

> <PUBCHEM_ATOM_UDEF_STEREO_COUNT>
9

> <PUBCHEM_BOND_DEF_STEREO_COUNT>
0

> <PUBCHEM_BOND_UDEF_STEREO_COUNT>
0

> <PUBCHEM_ISOTOPIC_ATOM_COUNT>
0

> <PUBCHEM_COMPONENT_COUNT>
1

> <PUBCHEM_CACTVS_TAUTO_COUNT>
-1

> <PUBCHEM_COORDINATE_TYPE>
1
5
255

> <PUBCHEM_BONDANNOTATIONS>
17  1  3
10  27  3
11  29  3
12  18  3
13  21  3
23  33  3
24  3  3
36  37  3
9  25  3

$$$$
