78384956
  -OEChem-09122006352D

 69 73  0     1  0  0  0  0  0999 V2000
    9.2392    2.1344    0.0000 O   0  0  0  0  0  0  0  0  0  0  0  0
    7.4149   -2.9603    0.0000 O   0  0  0  0  0  0  0  0  0  0  0  0
    8.6500   -2.1841    0.0000 O   0  0  0  0  0  0  0  0  0  0  0  0
    4.7950    0.5712    0.0000 O   0  0  0  0  0  0  0  0  0  0  0  0
    2.0000   -2.9812    0.0000 O   0  0  0  0  0  0  0  0  0  0  0  0
    8.9634    3.8950    0.0000 O   0  0  0  0  0  0  0  0  0  0  0  0
    7.3931    0.0712    0.0000 C   0  0  3  0  0  0  0  0  0  0  0  0
    7.3931   -0.9288    0.0000 C   0  0  3  0  0  0  0  0  0  0  0  0
    8.3393    0.3759    0.0000 C   0  0  3  0  0  0  0  0  0  0  0  0
    4.7510   -1.4357    0.0000 C   0  0  3  0  0  0  0  0  0  0  0  0
    6.5271   -1.4288    0.0000 C   0  0  0  0  0  0  0  0  0  0  0  0
    4.7430   -2.4773    0.0000 C   0  0  3  0  0  0  0  0  0  0  0  0
    5.6610   -0.9288    0.0000 C   0  0  0  0  0  0  0  0  0  0  0  0
    6.5271    0.5712    0.0000 C   0  0  0  0  0  0  0  0  0  0  0  0
    8.9229   -0.4288    0.0000 C   0  0  0  0  0  0  0  0  0  0  0  0
    8.6500    1.3264    0.0000 C   0  0  3  0  0  0  0  0  0  0  0  0
    8.3393   -1.2336    0.0000 C   0  0  0  0  0  0  0  0  0  0  0  0
    6.5431   -2.4704    0.0000 C   0  0  3  0  0  0  0  0  0  0  0  0
    5.6451   -2.9981    0.0000 C   0  0  0  0  0  0  0  0  0  0  0  0
    3.8076   -3.0270    0.0000 C   0  0  0  0  0  0  0  0  0  0  0  0
    7.3931    1.0712    0.0000 C   0  0  0  0  0  0  0  0  0  0  0  0
    5.6610    0.0712    0.0000 C   0  0  0  0  0  0  0  0  0  0  0  0
    3.8242   -0.8716    0.0000 C   0  0  0  0  0  0  0  0  0  0  0  0
    7.3931   -1.9288    0.0000 C   0  0  0  0  0  0  0  0  0  0  0  0
    4.7587   -0.4357    0.0000 C   0  0  0  0  0  0  0  0  0  0  0  0
    7.6994    1.6371    0.0000 C   0  0  0  0  0  0  0  0  0  0  0  0
    2.8763   -1.3996    0.0000 C   0  0  0  0  0  0  0  0  0  0  0  0
    2.8680   -2.4845    0.0000 C   0  0  0  0  0  0  0  0  0  0  0  0
    9.4580    0.7372    0.0000 C   0  0  0  0  0  0  0  0  0  0  0  0
    3.3109   -3.8950    0.0000 C   0  0  0  0  0  0  0  0  0  0  0  0
    4.3109   -3.8911    0.0000 C   0  0  0  0  0  0  0  0  0  0  0  0
    7.7012    2.6371    0.0000 C   0  0  0  0  0  0  0  0  0  0  0  0
    8.6528    2.9444    0.0000 C   0  0  0  0  0  0  0  0  0  0  0  0
    8.9518    0.4721    0.0000 H   0  0  0  0  0  0  0  0  0  0  0  0
    4.7454   -3.0973    0.0000 H   0  0  0  0  0  0  0  0  0  0  0  0
    6.9256    1.0461    0.0000 H   0  0  0  0  0  0  0  0  0  0  0  0
    6.1285    1.0461    0.0000 H   0  0  0  0  0  0  0  0  0  0  0  0
    9.3838   -0.8436    0.0000 H   0  0  0  0  0  0  0  0  0  0  0  0
    9.3838   -0.0141    0.0000 H   0  0  0  0  0  0  0  0  0  0  0  0
    6.5491   -3.0903    0.0000 H   0  0  0  0  0  0  0  0  0  0  0  0
    5.2478   -3.4741    0.0000 H   0  0  0  0  0  0  0  0  0  0  0  0
    6.0460   -3.4710    0.0000 H   0  0  0  0  0  0  0  0  0  0  0  0
    8.0131    1.0712    0.0000 H   0  0  0  0  0  0  0  0  0  0  0  0
    7.3931    1.6912    0.0000 H   0  0  0  0  0  0  0  0  0  0  0  0
    6.7731    1.0712    0.0000 H   0  0  0  0  0  0  0  0  0  0  0  0
    4.2324   -0.4050    0.0000 H   0  0  0  0  0  0  0  0  0  0  0  0
    3.4343   -0.3896    0.0000 H   0  0  0  0  0  0  0  0  0  0  0  0
    6.7731   -1.9288    0.0000 H   0  0  0  0  0  0  0  0  0  0  0  0
    7.3931   -2.5488    0.0000 H   0  0  0  0  0  0  0  0  0  0  0  0
    8.0131   -1.9288    0.0000 H   0  0  0  0  0  0  0  0  0  0  0  0
    5.3787   -0.4405    0.0000 H   0  0  0  0  0  0  0  0  0  0  0  0
    4.7635    0.1843    0.0000 H   0  0  0  0  0  0  0  0  0  0  0  0
    4.1388   -0.4309    0.0000 H   0  0  0  0  0  0  0  0  0  0  0  0
    7.0830    1.7030    0.0000 H   0  0  0  0  0  0  0  0  0  0  0  0
    7.5695    1.0308    0.0000 H   0  0  0  0  0  0  0  0  0  0  0  0
    2.6718   -0.8143    0.0000 H   0  0  0  0  0  0  0  0  0  0  0  0
    2.2647   -1.5009    0.0000 H   0  0  0  0  0  0  0  0  0  0  0  0
    9.0927    0.2363    0.0000 H   0  0  0  0  0  0  0  0  0  0  0  0
    9.9589    0.3719    0.0000 H   0  0  0  0  0  0  0  0  0  0  0  0
    9.8233    1.2382    0.0000 H   0  0  0  0  0  0  0  0  0  0  0  0
    2.7728   -3.5870    0.0000 H   0  0  0  0  0  0  0  0  0  0  0  0
    3.0030   -4.4331    0.0000 H   0  0  0  0  0  0  0  0  0  0  0  0
    3.8490   -4.2029    0.0000 H   0  0  0  0  0  0  0  0  0  0  0  0
    3.7752   -4.2032    0.0000 H   0  0  0  0  0  0  0  0  0  0  0  0
    4.6230   -4.4268    0.0000 H   0  0  0  0  0  0  0  0  0  0  0  0
    4.8466   -3.5790    0.0000 H   0  0  0  0  0  0  0  0  0  0  0  0
    7.5733    3.2437    0.0000 H   0  0  0  0  0  0  0  0  0  0  0  0
    7.0845    2.5733    0.0000 H   0  0  0  0  0  0  0  0  0  0  0  0
    7.4220   -3.5803    0.0000 H   0  0  0  0  0  0  0  0  0  0  0  0
  1 16  1  0  0  0  0
  1 33  1  0  0  0  0
  2 18  1  0  0  0  0
  2 69  1  0  0  0  0
  3 17  2  0  0  0  0
  4 22  2  0  0  0  0
  5 28  2  0  0  0  0
  6 33  2  0  0  0  0
  7  8  1  0  0  0  0
  7  9  1  0  0  0  0
  7 14  1  0  0  0  0
  7 21  1  0  0  0  0
  8 11  1  0  0  0  0
  8 17  1  0  0  0  0
  8 24  1  0  0  0  0
  9 15  1  0  0  0  0
  9 16  1  0  0  0  0
  9 34  1  0  0  0  0
 10 12  1  0  0  0  0
 10 13  1  0  0  0  0
 10 23  1  0  0  0  0
 10 25  1  0  0  0  0
 11 13  2  0  0  0  0
 11 18  1  0  0  0  0
 12 19  1  0  0  0  0
 12 20  1  0  0  0  0
 12 35  1  0  0  0  0
 13 22  1  0  0  0  0
 14 22  1  0  0  0  0
 14 36  1  0  0  0  0
 14 37  1  0  0  0  0
 15 17  1  0  0  0  0
 15 38  1  0  0  0  0
 15 39  1  0  0  0  0
 16 26  1  0  0  0  0
 16 29  1  0  0  0  0
 18 19  1  0  0  0  0
 18 40  1  0  0  0  0
 19 41  1  0  0  0  0
 19 42  1  0  0  0  0
 20 28  1  0  0  0  0
 20 30  1  0  0  0  0
 20 31  1  0  0  0  0
 21 43  1  0  0  0  0
 21 44  1  0  0  0  0
 21 45  1  0  0  0  0
 23 27  1  0  0  0  0
 23 46  1  0  0  0  0
 23 47  1  0  0  0  0
 24 48  1  0  0  0  0
 24 49  1  0  0  0  0
 24 50  1  0  0  0  0
 25 51  1  0  0  0  0
 25 52  1  0  0  0  0
 25 53  1  0  0  0  0
 26 32  1  0  0  0  0
 26 54  1  0  0  0  0
 26 55  1  0  0  0  0
 27 28  1  0  0  0  0
 27 56  1  0  0  0  0
 27 57  1  0  0  0  0
 29 58  1  0  0  0  0
 29 59  1  0  0  0  0
 29 60  1  0  0  0  0
 30 61  1  0  0  0  0
 30 62  1  0  0  0  0
 30 63  1  0  0  0  0
 31 64  1  0  0  0  0
 31 65  1  0  0  0  0
 31 66  1  0  0  0  0
 32 33  1  0  0  0  0
 32 67  1  0  0  0  0
 32 68  1  0  0  0  0
M  END
> <PUBCHEM_COMPOUND_CID>
78384956

> <PUBCHEM_COMPOUND_CANONICALIZED>
1

> <PUBCHEM_CACTVS_COMPLEXITY>
1040

> <PUBCHEM_CACTVS_HBOND_ACCEPTOR>
6

> <PUBCHEM_CACTVS_HBOND_DONOR>
1

> <PUBCHEM_CACTVS_ROTATABLE_BOND>
1

> <PUBCHEM_CACTVS_SUBSKEYS>
AAADcfB4OAAAAAAAAAAAAAAAAAAAAaIAAAAwQIAAAAAAAEDAAAAAGgAACAAAD1SggAICCAAABgCIAoDQCAAAAAAgAAAACAEAAEgAFBIAAAACUAAEgAAIEQOKzvDvgAAAAAAAAAAAAAQAACAAAQAACAAAAA==

> <PUBCHEM_IUPAC_OPENEYE_NAME>
7-hydroxy-4,4,10,13,14-pentamethyl-17-(2-methyl-5-oxo-tetrahydrofuran-2-yl)-1,2,5,6,7,12,16,17-octahydrocyclopenta[a]phenanthrene-3,11,15-trione

> <PUBCHEM_IUPAC_CAS_NAME>
7-hydroxy-4,4,10,13,14-pentamethyl-17-(2-methyl-5-oxo-2-oxolanyl)-1,2,5,6,7,12,16,17-octahydrocyclopenta[a]phenanthrene-3,11,15-trione

> <PUBCHEM_IUPAC_NAME_MARKUP>
7-hydroxy-4,4,10,13,14-pentamethyl-17-(2-methyl-5-oxooxolan-2-yl)-1,2,5,6,7,12,16,17-octahydrocyclopenta[a]phenanthrene-3,11,15-trione

> <PUBCHEM_IUPAC_NAME>
7-hydroxy-4,4,10,13,14-pentamethyl-17-(2-methyl-5-oxooxolan-2-yl)-1,2,5,6,7,12,16,17-octahydrocyclopenta[a]phenanthrene-3,11,15-trione

> <PUBCHEM_IUPAC_SYSTEMATIC_NAME>
4,4,10,13,14-pentamethyl-17-(2-methyl-5-oxidanylidene-oxolan-2-yl)-7-oxidanyl-1,2,5,6,7,12,16,17-octahydrocyclopenta[a]phenanthrene-3,11,15-trione

> <PUBCHEM_IUPAC_TRADITIONAL_NAME>
7-hydroxy-17-(5-keto-2-methyl-tetrahydrofuran-2-yl)-4,4,10,13,14-pentamethyl-1,2,5,6,7,12,16,17-octahydrocyclopenta[a]phenanthrene-3,11,15-trione

> <PUBCHEM_IUPAC_INCHI>
InChI=1S/C27H36O6/c1-23(2)16-11-14(28)22-21(24(16,3)9-7-18(23)30)15(29)13-25(4)17(12-19(31)27(22,25)6)26(5)10-8-20(32)33-26/h14,16-17,28H,7-13H2,1-6H3

> <PUBCHEM_IUPAC_INCHIKEY>
NEYFZTSOEPMHGQ-UHFFFAOYSA-N

> <PUBCHEM_XLOGP3_AA>
1.6

> <PUBCHEM_EXACT_MASS>
456.251189

> <PUBCHEM_MOLECULAR_FORMULA>
C27H36O6

> <PUBCHEM_MOLECULAR_WEIGHT>
456.6

> <PUBCHEM_OPENEYE_CAN_SMILES>
CC1(C2CC(C3=C(C2(CCC1=O)C)C(=O)CC4(C3(C(=O)CC4C5(CCC(=O)O5)C)C)C)O)C

> <PUBCHEM_OPENEYE_ISO_SMILES>
CC1(C2CC(C3=C(C2(CCC1=O)C)C(=O)CC4(C3(C(=O)CC4C5(CCC(=O)O5)C)C)C)O)C

> <PUBCHEM_CACTVS_TPSA>
97.7

> <PUBCHEM_MONOISOTOPIC_WEIGHT>
456.251189

> <PUBCHEM_TOTAL_CHARGE>
0

> <PUBCHEM_HEAVY_ATOM_COUNT>
33

> <PUBCHEM_ATOM_DEF_STEREO_COUNT>
0

> <PUBCHEM_ATOM_UDEF_STEREO_COUNT>
7

> <PUBCHEM_BOND_DEF_STEREO_COUNT>
0

> <PUBCHEM_BOND_UDEF_STEREO_COUNT>
0

> <PUBCHEM_ISOTOPIC_ATOM_COUNT>
0

> <PUBCHEM_COMPONENT_COUNT>
1

> <PUBCHEM_CACTVS_TAUTO_COUNT>
-1

> <PUBCHEM_COORDINATE_TYPE>
1
5
255

> <PUBCHEM_BONDANNOTATIONS>
10  25  3
12  19  3
16  29  3
18  2  3
7  21  3
8  24  3
9  15  3

$$$$
