14109387
  -OEChem-09122003172D

 74 77  0     1  0  0  0  0  0999 V2000
    7.9506   -2.1956    0.0000 O   0  0  0  0  0  0  0  0  0  0  0  0
    2.5357   -2.2165    0.0000 O   0  0  0  0  0  0  0  0  0  0  0  0
    9.1857   -1.4194    0.0000 O   0  0  0  0  0  0  0  0  0  0  0  0
    5.3307    1.3359    0.0000 O   0  0  0  0  0  0  0  0  0  0  0  0
    4.3500   -3.9943    0.0000 O   0  0  0  0  0  0  0  0  0  0  0  0
   11.7640    4.4046    0.0000 O   0  0  0  0  0  0  0  0  0  0  0  0
   12.1212    2.7098    0.0000 O   0  0  0  0  0  0  0  0  0  0  0  0
    7.9288    0.8359    0.0000 C   0  0  3  0  0  0  0  0  0  0  0  0
    7.9288   -0.1641    0.0000 C   0  0  3  0  0  0  0  0  0  0  0  0
    5.2868   -0.6710    0.0000 C   0  0  3  0  0  0  0  0  0  0  0  0
    5.2787   -1.7126    0.0000 C   0  0  3  0  0  0  0  0  0  0  0  0
    7.0628   -0.6641    0.0000 C   0  0  0  0  0  0  0  0  0  0  0  0
    8.8750    1.1406    0.0000 C   0  0  3  0  0  0  0  0  0  0  0  0
    6.1968   -0.1641    0.0000 C   0  0  0  0  0  0  0  0  0  0  0  0
    4.3433   -2.2623    0.0000 C   0  0  3  0  0  0  0  0  0  0  0  0
    6.1808   -2.2334    0.0000 C   0  0  0  0  0  0  0  0  0  0  0  0
    7.0628    1.3359    0.0000 C   0  0  0  0  0  0  0  0  0  0  0  0
    7.0789   -1.7056    0.0000 C   0  0  3  0  0  0  0  0  0  0  0  0
    4.3599   -0.1069    0.0000 C   0  0  0  0  0  0  0  0  0  0  0  0
    9.4586    0.3359    0.0000 C   0  0  0  0  0  0  0  0  0  0  0  0
    8.8750   -0.4689    0.0000 C   0  0  0  0  0  0  0  0  0  0  0  0
    3.4037   -1.7198    0.0000 C   0  0  3  0  0  0  0  0  0  0  0  0
    6.1968    0.8359    0.0000 C   0  0  0  0  0  0  0  0  0  0  0  0
    3.4120   -0.6348    0.0000 C   0  0  0  0  0  0  0  0  0  0  0  0
    9.1857    2.0911    0.0000 C   0  0  3  0  0  0  0  0  0  0  0  0
    7.9288    1.8359    0.0000 C   0  0  0  0  0  0  0  0  0  0  0  0
    7.9288   -1.1641    0.0000 C   0  0  0  0  0  0  0  0  0  0  0  0
    5.2945    0.3290    0.0000 C   0  0  0  0  0  0  0  0  0  0  0  0
    3.8467   -3.1302    0.0000 C   0  0  0  0  0  0  0  0  0  0  0  0
    4.8466   -3.1264    0.0000 C   0  0  0  0  0  0  0  0  0  0  0  0
   10.1642    2.2973    0.0000 C   0  0  0  0  0  0  0  0  0  0  0  0
    8.5179    2.8354    0.0000 C   0  0  0  0  0  0  0  0  0  0  0  0
   10.4749    3.2479    0.0000 C   0  0  0  0  0  0  0  0  0  0  0  0
   11.4534    3.4541    0.0000 C   0  0  0  0  0  0  0  0  0  0  0  0
    5.2811   -2.3326    0.0000 H   0  0  0  0  0  0  0  0  0  0  0  0
    9.4875    1.2368    0.0000 H   0  0  0  0  0  0  0  0  0  0  0  0
    5.7835   -2.7094    0.0000 H   0  0  0  0  0  0  0  0  0  0  0  0
    6.5818   -2.7063    0.0000 H   0  0  0  0  0  0  0  0  0  0  0  0
    7.4613    1.8108    0.0000 H   0  0  0  0  0  0  0  0  0  0  0  0
    6.6643    1.8108    0.0000 H   0  0  0  0  0  0  0  0  0  0  0  0
    7.6116   -1.3884    0.0000 H   0  0  0  0  0  0  0  0  0  0  0  0
    4.7681    0.3598    0.0000 H   0  0  0  0  0  0  0  0  0  0  0  0
    3.9700    0.3751    0.0000 H   0  0  0  0  0  0  0  0  0  0  0  0
    9.9195   -0.0789    0.0000 H   0  0  0  0  0  0  0  0  0  0  0  0
    9.9195    0.7506    0.0000 H   0  0  0  0  0  0  0  0  0  0  0  0
    3.4025   -2.3398    0.0000 H   0  0  0  0  0  0  0  0  0  0  0  0
    3.2075   -0.0496    0.0000 H   0  0  0  0  0  0  0  0  0  0  0  0
    2.8004   -0.7362    0.0000 H   0  0  0  0  0  0  0  0  0  0  0  0
    9.3783    2.6804    0.0000 H   0  0  0  0  0  0  0  0  0  0  0  0
    8.5488    1.8359    0.0000 H   0  0  0  0  0  0  0  0  0  0  0  0
    7.9288    2.4559    0.0000 H   0  0  0  0  0  0  0  0  0  0  0  0
    7.3088    1.8359    0.0000 H   0  0  0  0  0  0  0  0  0  0  0  0
    7.3088   -1.1641    0.0000 H   0  0  0  0  0  0  0  0  0  0  0  0
    7.9288   -1.7841    0.0000 H   0  0  0  0  0  0  0  0  0  0  0  0
    8.5488   -1.1641    0.0000 H   0  0  0  0  0  0  0  0  0  0  0  0
    5.9145    0.3242    0.0000 H   0  0  0  0  0  0  0  0  0  0  0  0
    5.2993    0.9490    0.0000 H   0  0  0  0  0  0  0  0  0  0  0  0
    4.6745    0.3338    0.0000 H   0  0  0  0  0  0  0  0  0  0  0  0
    3.3702   -2.7336    0.0000 H   0  0  0  0  0  0  0  0  0  0  0  0
    3.3732   -3.5306    0.0000 H   0  0  0  0  0  0  0  0  0  0  0  0
    4.3109   -3.4385    0.0000 H   0  0  0  0  0  0  0  0  0  0  0  0
    5.1587   -3.6621    0.0000 H   0  0  0  0  0  0  0  0  0  0  0  0
    5.3824   -2.8143    0.0000 H   0  0  0  0  0  0  0  0  0  0  0  0
   10.1848    1.6777    0.0000 H   0  0  0  0  0  0  0  0  0  0  0  0
   10.7780    2.2100    0.0000 H   0  0  0  0  0  0  0  0  0  0  0  0
    8.9793    3.2495    0.0000 H   0  0  0  0  0  0  0  0  0  0  0  0
    8.1038    3.2969    0.0000 H   0  0  0  0  0  0  0  0  0  0  0  0
    8.0564    2.4214    0.0000 H   0  0  0  0  0  0  0  0  0  0  0  0
    7.9578   -2.8155    0.0000 H   0  0  0  0  0  0  0  0  0  0  0  0
    2.0000   -1.9044    0.0000 H   0  0  0  0  0  0  0  0  0  0  0  0
   10.4543    3.8675    0.0000 H   0  0  0  0  0  0  0  0  0  0  0  0
    9.8611    3.3352    0.0000 H   0  0  0  0  0  0  0  0  0  0  0  0
    4.0421   -4.5325    0.0000 H   0  0  0  0  0  0  0  0  0  0  0  0
   12.3707    4.5325    0.0000 H   0  0  0  0  0  0  0  0  0  0  0  0
  1 18  1  0  0  0  0
  1 69  1  0  0  0  0
  2 22  1  0  0  0  0
  2 70  1  0  0  0  0
  3 21  2  0  0  0  0
  4 23  2  0  0  0  0
  5 29  1  0  0  0  0
  5 73  1  0  0  0  0
  6 34  1  0  0  0  0
  6 74  1  0  0  0  0
  7 34  2  0  0  0  0
  8  9  1  0  0  0  0
  8 13  1  0  0  0  0
  8 17  1  0  0  0  0
  8 26  1  0  0  0  0
  9 12  1  0  0  0  0
  9 21  1  0  0  0  0
  9 27  1  0  0  0  0
 10 11  1  0  0  0  0
 10 14  1  0  0  0  0
 10 19  1  0  0  0  0
 10 28  1  0  0  0  0
 11 15  1  0  0  0  0
 11 16  1  0  0  0  0
 11 35  1  0  0  0  0
 12 14  2  0  0  0  0
 12 18  1  0  0  0  0
 13 20  1  0  0  0  0
 13 25  1  0  0  0  0
 13 36  1  0  0  0  0
 14 23  1  0  0  0  0
 15 22  1  0  0  0  0
 15 29  1  0  0  0  0
 15 30  1  0  0  0  0
 16 18  1  0  0  0  0
 16 37  1  0  0  0  0
 16 38  1  0  0  0  0
 17 23  1  0  0  0  0
 17 39  1  0  0  0  0
 17 40  1  0  0  0  0
 18 41  1  0  0  0  0
 19 24  1  0  0  0  0
 19 42  1  0  0  0  0
 19 43  1  0  0  0  0
 20 21  1  0  0  0  0
 20 44  1  0  0  0  0
 20 45  1  0  0  0  0
 22 24  1  0  0  0  0
 22 46  1  0  0  0  0
 24 47  1  0  0  0  0
 24 48  1  0  0  0  0
 25 31  1  0  0  0  0
 25 32  1  0  0  0  0
 25 49  1  0  0  0  0
 26 50  1  0  0  0  0
 26 51  1  0  0  0  0
 26 52  1  0  0  0  0
 27 53  1  0  0  0  0
 27 54  1  0  0  0  0
 27 55  1  0  0  0  0
 28 56  1  0  0  0  0
 28 57  1  0  0  0  0
 28 58  1  0  0  0  0
 29 59  1  0  0  0  0
 29 60  1  0  0  0  0
 30 61  1  0  0  0  0
 30 62  1  0  0  0  0
 30 63  1  0  0  0  0
 31 33  1  0  0  0  0
 31 64  1  0  0  0  0
 31 65  1  0  0  0  0
 32 66  1  0  0  0  0
 32 67  1  0  0  0  0
 32 68  1  0  0  0  0
 33 34  1  0  0  0  0
 33 71  1  0  0  0  0
 33 72  1  0  0  0  0
M  END
> <PUBCHEM_COMPOUND_CID>
14109387

> <PUBCHEM_COMPOUND_CANONICALIZED>
1

> <PUBCHEM_CACTVS_COMPLEXITY>
955

> <PUBCHEM_CACTVS_HBOND_ACCEPTOR>
7

> <PUBCHEM_CACTVS_HBOND_DONOR>
4

> <PUBCHEM_CACTVS_ROTATABLE_BOND>
5

> <PUBCHEM_CACTVS_SUBSKEYS>
AAADcfB4OAAAAAAAAAAAAAAAAAAAAYAAAAAwQIAAAAAAAEDAAAAAGgAACAAADxSggAICCAAAAgCIAoDQCAAAAAAgAAAACAEAAEgAFBIAAAAAUAAFgAAIEQOK6vSvgAAAAAAAAABAAAYAADAAAQAACAAAAA==

> <PUBCHEM_IUPAC_OPENEYE_NAME>
4-[3,7-dihydroxy-4-(hydroxymethyl)-4,10,13,14-tetramethyl-11,15-dioxo-2,3,5,6,7,12,16,17-octahydro-1H-cyclopenta[a]phenanthren-17-yl]pentanoic acid

> <PUBCHEM_IUPAC_CAS_NAME>
4-[3,7-dihydroxy-4-(hydroxymethyl)-4,10,13,14-tetramethyl-11,15-dioxo-2,3,5,6,7,12,16,17-octahydro-1H-cyclopenta[a]phenanthren-17-yl]pentanoic acid

> <PUBCHEM_IUPAC_NAME_MARKUP>
4-[3,7-dihydroxy-4-(hydroxymethyl)-4,10,13,14-tetramethyl-11,15-dioxo-2,3,5,6,7,12,16,17-octahydro-1<I>H</I>-cyclopenta[a]phenanthren-17-yl]pentanoic acid

> <PUBCHEM_IUPAC_NAME>
4-[3,7-dihydroxy-4-(hydroxymethyl)-4,10,13,14-tetramethyl-11,15-dioxo-2,3,5,6,7,12,16,17-octahydro-1H-cyclopenta[a]phenanthren-17-yl]pentanoic acid

> <PUBCHEM_IUPAC_SYSTEMATIC_NAME>
4-[4-(hydroxymethyl)-4,10,13,14-tetramethyl-3,7-bis(oxidanyl)-11,15-bis(oxidanylidene)-2,3,5,6,7,12,16,17-octahydro-1H-cyclopenta[a]phenanthren-17-yl]pentanoic acid

> <PUBCHEM_IUPAC_TRADITIONAL_NAME>
4-(3,7-dihydroxy-11,15-diketo-4,10,13,14-tetramethyl-4-methylol-2,3,5,6,7,12,16,17-octahydro-1H-cyclopenta[a]phenanthren-17-yl)valeric acid

> <PUBCHEM_IUPAC_INCHI>
InChI=1S/C27H40O7/c1-14(6-7-21(33)34)15-10-20(32)27(5)23-16(29)11-18-24(2,9-8-19(31)25(18,3)13-28)22(23)17(30)12-26(15,27)4/h14-16,18-19,28-29,31H,6-13H2,1-5H3,(H,33,34)

> <PUBCHEM_IUPAC_INCHIKEY>
FWZRMYARQHUFQY-UHFFFAOYSA-N

> <PUBCHEM_XLOGP3_AA>
1.7

> <PUBCHEM_EXACT_MASS>
476.277404

> <PUBCHEM_MOLECULAR_FORMULA>
C27H40O7

> <PUBCHEM_MOLECULAR_WEIGHT>
476.6

> <PUBCHEM_OPENEYE_CAN_SMILES>
CC(CCC(=O)O)C1CC(=O)C2(C1(CC(=O)C3=C2C(CC4C3(CCC(C4(C)CO)O)C)O)C)C

> <PUBCHEM_OPENEYE_ISO_SMILES>
CC(CCC(=O)O)C1CC(=O)C2(C1(CC(=O)C3=C2C(CC4C3(CCC(C4(C)CO)O)C)O)C)C

> <PUBCHEM_CACTVS_TPSA>
132

> <PUBCHEM_MONOISOTOPIC_WEIGHT>
476.277404

> <PUBCHEM_TOTAL_CHARGE>
0

> <PUBCHEM_HEAVY_ATOM_COUNT>
34

> <PUBCHEM_ATOM_DEF_STEREO_COUNT>
0

> <PUBCHEM_ATOM_UDEF_STEREO_COUNT>
9

> <PUBCHEM_BOND_DEF_STEREO_COUNT>
0

> <PUBCHEM_BOND_UDEF_STEREO_COUNT>
0

> <PUBCHEM_ISOTOPIC_ATOM_COUNT>
0

> <PUBCHEM_COMPONENT_COUNT>
1

> <PUBCHEM_CACTVS_TAUTO_COUNT>
-1

> <PUBCHEM_COORDINATE_TYPE>
1
5
255

> <PUBCHEM_BONDANNOTATIONS>
18  1  3
10  28  3
11  16  3
13  20  3
15  30  3
22  2  3
25  32  3
8  26  3
9  27  3

$$$$
