15602259
  -OEChem-09122006222D

 91 94  0     1  0  0  0  0  0999 V2000
    7.4149   -3.4282    0.0000 O   0  0  0  0  0  0  0  0  0  0  0  0
    2.0000   -3.4490    0.0000 O   0  0  0  0  0  0  0  0  0  0  0  0
   11.5855    1.4772    0.0000 O   0  0  0  0  0  0  0  0  0  0  0  0
   12.1788    2.8613    0.0000 O   0  0  0  0  0  0  0  0  0  0  0  0
   12.5175    4.3288    0.0000 O   0  0  0  0  0  0  0  0  0  0  0  0
    7.3931   -0.3967    0.0000 C   0  0  3  0  0  0  0  0  0  0  0  0
    7.3931   -1.3967    0.0000 C   0  0  3  0  0  0  0  0  0  0  0  0
    8.3393   -0.0920    0.0000 C   0  0  3  0  0  0  0  0  0  0  0  0
    6.5271   -1.8967    0.0000 C   0  0  0  0  0  0  0  0  0  0  0  0
    4.7510   -1.9036    0.0000 C   0  0  3  0  0  0  0  0  0  0  0  0
    8.3393   -1.7015    0.0000 C   0  0  0  0  0  0  0  0  0  0  0  0
    5.6610   -1.3967    0.0000 C   0  0  0  0  0  0  0  0  0  0  0  0
    6.5271    0.1033    0.0000 C   0  0  0  0  0  0  0  0  0  0  0  0
    8.9229   -0.8967    0.0000 C   0  0  0  0  0  0  0  0  0  0  0  0
    4.7430   -2.9452    0.0000 C   0  0  3  0  0  0  0  0  0  0  0  0
    5.6610   -0.3967    0.0000 C   0  0  0  0  0  0  0  0  0  0  0  0
    6.5431   -2.9382    0.0000 C   0  0  3  0  0  0  0  0  0  0  0  0
    5.6451   -3.4660    0.0000 C   0  0  0  0  0  0  0  0  0  0  0  0
    8.6500    0.8585    0.0000 C   0  0  3  0  0  0  0  0  0  0  0  0
    7.3931    0.6033    0.0000 C   0  0  0  0  0  0  0  0  0  0  0  0
    7.3931   -2.3967    0.0000 C   0  0  0  0  0  0  0  0  0  0  0  0
    3.8076   -3.4949    0.0000 C   0  0  0  0  0  0  0  0  0  0  0  0
    3.8242   -1.3395    0.0000 C   0  0  0  0  0  0  0  0  0  0  0  0
    4.7587   -0.9036    0.0000 C   0  0  0  0  0  0  0  0  0  0  0  0
    2.8763   -1.8674    0.0000 C   0  0  0  0  0  0  0  0  0  0  0  0
    2.8680   -2.9524    0.0000 C   0  0  0  0  0  0  0  0  0  0  0  0
    9.6285    1.0648    0.0000 C   0  0  0  0  0  0  0  0  0  0  0  0
    7.9821    1.6028    0.0000 C   0  0  0  0  0  0  0  0  0  0  0  0
    3.3109   -4.3628    0.0000 C   0  0  0  0  0  0  0  0  0  0  0  0
    4.3109   -4.3590    0.0000 C   0  0  0  0  0  0  0  0  0  0  0  0
    9.9391    2.0153    0.0000 C   0  0  0  0  0  0  0  0  0  0  0  0
    7.4264   -4.4281    0.0000 C   0  0  0  0  0  0  0  0  0  0  0  0
   10.9176    2.2215    0.0000 C   0  0  3  0  0  0  0  0  0  0  0  0
   11.2283    3.1720    0.0000 C   0  0  3  0  0  0  0  0  0  0  0  0
    8.2982   -4.9181    0.0000 C   0  0  0  0  0  0  0  0  0  0  0  0
   11.5390    4.1225    0.0000 C   0  0  0  0  0  0  0  0  0  0  0  0
   10.2778    3.4827    0.0000 C   0  0  0  0  0  0  0  0  0  0  0  0
    8.9518    0.0042    0.0000 H   0  0  0  0  0  0  0  0  0  0  0  0
    8.0883   -2.2684    0.0000 H   0  0  0  0  0  0  0  0  0  0  0  0
    8.8767   -2.0107    0.0000 H   0  0  0  0  0  0  0  0  0  0  0  0
    6.9256    0.5782    0.0000 H   0  0  0  0  0  0  0  0  0  0  0  0
    6.1285    0.5782    0.0000 H   0  0  0  0  0  0  0  0  0  0  0  0
    9.3838   -1.3114    0.0000 H   0  0  0  0  0  0  0  0  0  0  0  0
    9.3838   -0.4820    0.0000 H   0  0  0  0  0  0  0  0  0  0  0  0
    4.7454   -3.5652    0.0000 H   0  0  0  0  0  0  0  0  0  0  0  0
    5.4490    0.1859    0.0000 H   0  0  0  0  0  0  0  0  0  0  0  0
    5.0504   -0.5044    0.0000 H   0  0  0  0  0  0  0  0  0  0  0  0
    6.5491   -3.5582    0.0000 H   0  0  0  0  0  0  0  0  0  0  0  0
    5.2478   -3.9420    0.0000 H   0  0  0  0  0  0  0  0  0  0  0  0
    6.0460   -3.9389    0.0000 H   0  0  0  0  0  0  0  0  0  0  0  0
    8.0433    0.7307    0.0000 H   0  0  0  0  0  0  0  0  0  0  0  0
    8.0131    0.6033    0.0000 H   0  0  0  0  0  0  0  0  0  0  0  0
    7.3931    1.2233    0.0000 H   0  0  0  0  0  0  0  0  0  0  0  0
    6.7731    0.6033    0.0000 H   0  0  0  0  0  0  0  0  0  0  0  0
    6.7731   -2.3967    0.0000 H   0  0  0  0  0  0  0  0  0  0  0  0
    7.3931   -3.0167    0.0000 H   0  0  0  0  0  0  0  0  0  0  0  0
    8.0131   -2.3967    0.0000 H   0  0  0  0  0  0  0  0  0  0  0  0
    4.2324   -0.8728    0.0000 H   0  0  0  0  0  0  0  0  0  0  0  0
    3.4343   -0.8574    0.0000 H   0  0  0  0  0  0  0  0  0  0  0  0
    5.3787   -0.9084    0.0000 H   0  0  0  0  0  0  0  0  0  0  0  0
    4.7635   -0.2836    0.0000 H   0  0  0  0  0  0  0  0  0  0  0  0
    4.1388   -0.8988    0.0000 H   0  0  0  0  0  0  0  0  0  0  0  0
    2.6718   -1.2821    0.0000 H   0  0  0  0  0  0  0  0  0  0  0  0
    2.2647   -1.9688    0.0000 H   0  0  0  0  0  0  0  0  0  0  0  0
    9.6490    0.4451    0.0000 H   0  0  0  0  0  0  0  0  0  0  0  0
   10.2423    0.9774    0.0000 H   0  0  0  0  0  0  0  0  0  0  0  0
    8.4436    2.0169    0.0000 H   0  0  0  0  0  0  0  0  0  0  0  0
    7.5681    2.0643    0.0000 H   0  0  0  0  0  0  0  0  0  0  0  0
    7.5207    1.1888    0.0000 H   0  0  0  0  0  0  0  0  0  0  0  0
    2.7728   -4.0549    0.0000 H   0  0  0  0  0  0  0  0  0  0  0  0
    3.0030   -4.9010    0.0000 H   0  0  0  0  0  0  0  0  0  0  0  0
    3.8490   -4.6708    0.0000 H   0  0  0  0  0  0  0  0  0  0  0  0
    3.7752   -4.6710    0.0000 H   0  0  0  0  0  0  0  0  0  0  0  0
    4.6230   -4.8947    0.0000 H   0  0  0  0  0  0  0  0  0  0  0  0
    4.8466   -4.0469    0.0000 H   0  0  0  0  0  0  0  0  0  0  0  0
    9.9186    2.6349    0.0000 H   0  0  0  0  0  0  0  0  0  0  0  0
    9.3253    2.1026    0.0000 H   0  0  0  0  0  0  0  0  0  0  0  0
    6.8146   -4.3275    0.0000 H   0  0  0  0  0  0  0  0  0  0  0  0
    7.2211   -5.0131    0.0000 H   0  0  0  0  0  0  0  0  0  0  0  0
   10.7250    1.6322    0.0000 H   0  0  0  0  0  0  0  0  0  0  0  0
    7.9944   -5.4586    0.0000 H   0  0  0  0  0  0  0  0  0  0  0  0
    8.8387   -5.2218    0.0000 H   0  0  0  0  0  0  0  0  0  0  0  0
    8.6020   -4.3776    0.0000 H   0  0  0  0  0  0  0  0  0  0  0  0
   12.1922    1.6050    0.0000 H   0  0  0  0  0  0  0  0  0  0  0  0
   11.5184    4.7422    0.0000 H   0  0  0  0  0  0  0  0  0  0  0  0
   10.9251    4.2099    0.0000 H   0  0  0  0  0  0  0  0  0  0  0  0
   10.4704    4.0720    0.0000 H   0  0  0  0  0  0  0  0  0  0  0  0
    9.6885    3.6753    0.0000 H   0  0  0  0  0  0  0  0  0  0  0  0
   10.0852    2.8934    0.0000 H   0  0  0  0  0  0  0  0  0  0  0  0
   12.6403    3.2754    0.0000 H   0  0  0  0  0  0  0  0  0  0  0  0
   12.7101    4.9181    0.0000 H   0  0  0  0  0  0  0  0  0  0  0  0
  1 17  1  0  0  0  0
  1 32  1  0  0  0  0
  2 26  2  0  0  0  0
  3 33  1  0  0  0  0
  3 84  1  0  0  0  0
  4 34  1  0  0  0  0
  4 90  1  0  0  0  0
  5 36  1  0  0  0  0
  5 91  1  0  0  0  0
  6  7  1  0  0  0  0
  6  8  1  0  0  0  0
  6 13  1  0  0  0  0
  6 20  1  0  0  0  0
  7  9  1  0  0  0  0
  7 11  1  0  0  0  0
  7 21  1  0  0  0  0
  8 14  1  0  0  0  0
  8 19  1  0  0  0  0
  8 38  1  0  0  0  0
  9 12  2  0  0  0  0
  9 17  1  0  0  0  0
 10 12  1  0  0  0  0
 10 15  1  0  0  0  0
 10 23  1  0  0  0  0
 10 24  1  0  0  0  0
 11 14  1  0  0  0  0
 11 39  1  0  0  0  0
 11 40  1  0  0  0  0
 12 16  1  0  0  0  0
 13 16  1  0  0  0  0
 13 41  1  0  0  0  0
 13 42  1  0  0  0  0
 14 43  1  0  0  0  0
 14 44  1  0  0  0  0
 15 18  1  0  0  0  0
 15 22  1  0  0  0  0
 15 45  1  0  0  0  0
 16 46  1  0  0  0  0
 16 47  1  0  0  0  0
 17 18  1  0  0  0  0
 17 48  1  0  0  0  0
 18 49  1  0  0  0  0
 18 50  1  0  0  0  0
 19 27  1  0  0  0  0
 19 28  1  0  0  0  0
 19 51  1  0  0  0  0
 20 52  1  0  0  0  0
 20 53  1  0  0  0  0
 20 54  1  0  0  0  0
 21 55  1  0  0  0  0
 21 56  1  0  0  0  0
 21 57  1  0  0  0  0
 22 26  1  0  0  0  0
 22 29  1  0  0  0  0
 22 30  1  0  0  0  0
 23 25  1  0  0  0  0
 23 58  1  0  0  0  0
 23 59  1  0  0  0  0
 24 60  1  0  0  0  0
 24 61  1  0  0  0  0
 24 62  1  0  0  0  0
 25 26  1  0  0  0  0
 25 63  1  0  0  0  0
 25 64  1  0  0  0  0
 27 31  1  0  0  0  0
 27 65  1  0  0  0  0
 27 66  1  0  0  0  0
 28 67  1  0  0  0  0
 28 68  1  0  0  0  0
 28 69  1  0  0  0  0
 29 70  1  0  0  0  0
 29 71  1  0  0  0  0
 29 72  1  0  0  0  0
 30 73  1  0  0  0  0
 30 74  1  0  0  0  0
 30 75  1  0  0  0  0
 31 33  1  0  0  0  0
 31 76  1  0  0  0  0
 31 77  1  0  0  0  0
 32 35  1  0  0  0  0
 32 78  1  0  0  0  0
 32 79  1  0  0  0  0
 33 34  1  0  0  0  0
 33 80  1  0  0  0  0
 34 36  1  0  0  0  0
 34 37  1  0  0  0  0
 35 81  1  0  0  0  0
 35 82  1  0  0  0  0
 35 83  1  0  0  0  0
 36 85  1  0  0  0  0
 36 86  1  0  0  0  0
 37 87  1  0  0  0  0
 37 88  1  0  0  0  0
 37 89  1  0  0  0  0
M  END
> <PUBCHEM_COMPOUND_CID>
15602259

> <PUBCHEM_COMPOUND_CANONICALIZED>
1

> <PUBCHEM_CACTVS_COMPLEXITY>
924

> <PUBCHEM_CACTVS_HBOND_ACCEPTOR>
5

> <PUBCHEM_CACTVS_HBOND_DONOR>
3

> <PUBCHEM_CACTVS_ROTATABLE_BOND>
8

> <PUBCHEM_CACTVS_SUBSKEYS>
AAADcfB8OAAAAAAAAAAAAAAAAAAAAYAAAAAwQIAAAAAAAEDAAAAAGgAACAAAD1SggAICAAAABgCIAoBQAAAAAAAgAAAACAEAAAgBFBIAIAACUAAFgAAJIAOIzPDPgAAAAAAAAAAAAAQAACAAAQAACAAAAA==

> <PUBCHEM_IUPAC_OPENEYE_NAME>
7-ethoxy-4,4,10,13,14-pentamethyl-17-(4,5,6-trihydroxy-1,5-dimethyl-hexyl)-1,2,5,6,7,11,12,15,16,17-decahydrocyclopenta[a]phenanthren-3-one

> <PUBCHEM_IUPAC_CAS_NAME>
7-ethoxy-4,4,10,13,14-pentamethyl-17-(5,6,7-trihydroxy-6-methylheptan-2-yl)-1,2,5,6,7,11,12,15,16,17-decahydrocyclopenta[a]phenanthren-3-one

> <PUBCHEM_IUPAC_NAME_MARKUP>
7-ethoxy-4,4,10,13,14-pentamethyl-17-(5,6,7-trihydroxy-6-methylheptan-2-yl)-1,2,5,6,7,11,12,15,16,17-decahydrocyclopenta[a]phenanthren-3-one

> <PUBCHEM_IUPAC_NAME>
7-ethoxy-4,4,10,13,14-pentamethyl-17-(5,6,7-trihydroxy-6-methylheptan-2-yl)-1,2,5,6,7,11,12,15,16,17-decahydrocyclopenta[a]phenanthren-3-one

> <PUBCHEM_IUPAC_SYSTEMATIC_NAME>
7-ethoxy-4,4,10,13,14-pentamethyl-17-[6-methyl-5,6,7-tris(oxidanyl)heptan-2-yl]-1,2,5,6,7,11,12,15,16,17-decahydrocyclopenta[a]phenanthren-3-one

> <PUBCHEM_IUPAC_TRADITIONAL_NAME>
7-ethoxy-4,4,10,13,14-pentamethyl-17-(4,5,6-trihydroxy-1,5-dimethyl-hexyl)-1,2,5,6,7,11,12,15,16,17-decahydrocyclopenta[a]phenanthren-3-one

> <PUBCHEM_IUPAC_INCHI>
InChI=1S/C32H54O5/c1-9-37-23-18-24-28(3,4)25(34)14-15-29(24,5)22-13-16-30(6)21(12-17-31(30,7)27(22)23)20(2)10-11-26(35)32(8,36)19-33/h20-21,23-24,26,33,35-36H,9-19H2,1-8H3

> <PUBCHEM_IUPAC_INCHIKEY>
NBPAZLNDCXUMSM-UHFFFAOYSA-N

> <PUBCHEM_XLOGP3_AA>
4.7

> <PUBCHEM_EXACT_MASS>
518.397125

> <PUBCHEM_MOLECULAR_FORMULA>
C32H54O5

> <PUBCHEM_MOLECULAR_WEIGHT>
518.8

> <PUBCHEM_OPENEYE_CAN_SMILES>
CCOC1CC2C(C(=O)CCC2(C3=C1C4(CCC(C4(CC3)C)C(C)CCC(C(C)(CO)O)O)C)C)(C)C

> <PUBCHEM_OPENEYE_ISO_SMILES>
CCOC1CC2C(C(=O)CCC2(C3=C1C4(CCC(C4(CC3)C)C(C)CCC(C(C)(CO)O)O)C)C)(C)C

> <PUBCHEM_CACTVS_TPSA>
87

> <PUBCHEM_MONOISOTOPIC_WEIGHT>
518.397125

> <PUBCHEM_TOTAL_CHARGE>
0

> <PUBCHEM_HEAVY_ATOM_COUNT>
37

> <PUBCHEM_ATOM_DEF_STEREO_COUNT>
0

> <PUBCHEM_ATOM_UDEF_STEREO_COUNT>
9

> <PUBCHEM_BOND_DEF_STEREO_COUNT>
0

> <PUBCHEM_BOND_UDEF_STEREO_COUNT>
0

> <PUBCHEM_ISOTOPIC_ATOM_COUNT>
0

> <PUBCHEM_COMPONENT_COUNT>
1

> <PUBCHEM_CACTVS_TAUTO_COUNT>
-1

> <PUBCHEM_COORDINATE_TYPE>
1
5
255

> <PUBCHEM_BONDANNOTATIONS>
17  1  3
10  24  3
15  18  3
19  28  3
33  3  3
34  4  3
6  20  3
7  21  3
8  14  3

$$$$
