131751707
  -OEChem-09122004152D

 93 96  0     1  0  0  0  0  0999 V2000
   10.3820   -2.8471    0.0000 O   0  0  0  0  0  0  0  0  0  0  0  0
    9.1469   -3.6233    0.0000 O   0  0  0  0  0  0  0  0  0  0  0  0
    3.7320   -3.6442    0.0000 O   0  0  0  0  0  0  0  0  0  0  0  0
    8.2983   -5.1332    0.0000 O   0  0  0  0  0  0  0  0  0  0  0  0
    2.8718   -2.1408    0.0000 O   0  0  0  0  0  0  0  0  0  0  0  0
   12.6032    4.6717    0.0000 O   0  0  0  0  0  0  0  0  0  0  0  0
   11.3140    3.5150    0.0000 O   0  0  0  0  0  0  0  0  0  0  0  0
    9.1251   -0.5918    0.0000 C   0  0  3  0  0  0  0  0  0  0  0  0
    9.1251   -1.5918    0.0000 C   0  0  3  0  0  0  0  0  0  0  0  0
   10.0713   -0.2871    0.0000 C   0  0  3  0  0  0  0  0  0  0  0  0
    6.4831   -2.0987    0.0000 C   0  0  3  0  0  0  0  0  0  0  0  0
    8.2591   -2.0918    0.0000 C   0  0  0  0  0  0  0  0  0  0  0  0
   10.0713   -1.8966    0.0000 C   0  0  3  0  0  0  0  0  0  0  0  0
    6.4750   -3.1403    0.0000 C   0  0  3  0  0  0  0  0  0  0  0  0
    7.3931   -1.5918    0.0000 C   0  0  0  0  0  0  0  0  0  0  0  0
    8.2591   -0.0918    0.0000 C   0  0  0  0  0  0  0  0  0  0  0  0
   10.6550   -1.0918    0.0000 C   0  0  0  0  0  0  0  0  0  0  0  0
    7.3931   -0.5918    0.0000 C   0  0  0  0  0  0  0  0  0  0  0  0
    8.2752   -3.1333    0.0000 C   0  0  3  0  0  0  0  0  0  0  0  0
    5.5396   -3.6900    0.0000 C   0  0  0  0  0  0  0  0  0  0  0  0
    7.3771   -3.6611    0.0000 C   0  0  0  0  0  0  0  0  0  0  0  0
    5.5562   -1.5346    0.0000 C   0  0  0  0  0  0  0  0  0  0  0  0
   10.3820    0.6634    0.0000 C   0  0  3  0  0  0  0  0  0  0  0  0
    9.1251    0.4082    0.0000 C   0  0  0  0  0  0  0  0  0  0  0  0
    9.1251   -2.5918    0.0000 C   0  0  0  0  0  0  0  0  0  0  0  0
    4.6000   -3.1475    0.0000 C   0  0  3  0  0  0  0  0  0  0  0  0
    4.6084   -2.0625    0.0000 C   0  0  0  0  0  0  0  0  0  0  0  0
    6.4908   -1.0987    0.0000 C   0  0  0  0  0  0  0  0  0  0  0  0
    5.0430   -4.5579    0.0000 C   0  0  0  0  0  0  0  0  0  0  0  0
    6.0430   -4.5541    0.0000 C   0  0  0  0  0  0  0  0  0  0  0  0
   11.3605    0.8696    0.0000 C   0  0  0  0  0  0  0  0  0  0  0  0
    9.7142    1.4077    0.0000 C   0  0  0  0  0  0  0  0  0  0  0  0
   11.6712    1.8202    0.0000 C   0  0  0  0  0  0  0  0  0  0  0  0
    9.1585   -4.6232    0.0000 C   0  0  0  0  0  0  0  0  0  0  0  0
    2.8680   -3.1408    0.0000 C   0  0  0  0  0  0  0  0  0  0  0  0
   12.6497    2.0264    0.0000 C   0  0  0  0  0  0  0  0  0  0  0  0
   10.0302   -5.1132    0.0000 C   0  0  0  0  0  0  0  0  0  0  0  0
    2.0000   -3.6375    0.0000 C   0  0  0  0  0  0  0  0  0  0  0  0
   12.9603    2.9769    0.0000 C   0  0  0  0  0  0  0  0  0  0  0  0
   13.9388    3.1831    0.0000 C   0  0  0  0  0  0  0  0  0  0  0  0
   12.2925    3.7212    0.0000 C   0  0  0  0  0  0  0  0  0  0  0  0
   10.6838   -0.1909    0.0000 H   0  0  0  0  0  0  0  0  0  0  0  0
    9.6339   -2.3359    0.0000 H   0  0  0  0  0  0  0  0  0  0  0  0
    6.4774   -3.7603    0.0000 H   0  0  0  0  0  0  0  0  0  0  0  0
    8.6576    0.3831    0.0000 H   0  0  0  0  0  0  0  0  0  0  0  0
    7.8606    0.3831    0.0000 H   0  0  0  0  0  0  0  0  0  0  0  0
   11.1158   -1.5066    0.0000 H   0  0  0  0  0  0  0  0  0  0  0  0
   11.1158   -0.6771    0.0000 H   0  0  0  0  0  0  0  0  0  0  0  0
    7.1810   -0.0092    0.0000 H   0  0  0  0  0  0  0  0  0  0  0  0
    6.7825   -0.6995    0.0000 H   0  0  0  0  0  0  0  0  0  0  0  0
    8.2811   -3.7533    0.0000 H   0  0  0  0  0  0  0  0  0  0  0  0
    6.9798   -4.1370    0.0000 H   0  0  0  0  0  0  0  0  0  0  0  0
    7.7781   -4.1340    0.0000 H   0  0  0  0  0  0  0  0  0  0  0  0
    5.9644   -1.0679    0.0000 H   0  0  0  0  0  0  0  0  0  0  0  0
    5.1663   -1.0526    0.0000 H   0  0  0  0  0  0  0  0  0  0  0  0
   10.5746    1.2528    0.0000 H   0  0  0  0  0  0  0  0  0  0  0  0
    9.7451    0.4082    0.0000 H   0  0  0  0  0  0  0  0  0  0  0  0
    9.1251    1.0282    0.0000 H   0  0  0  0  0  0  0  0  0  0  0  0
    8.5051    0.4082    0.0000 H   0  0  0  0  0  0  0  0  0  0  0  0
    8.5051   -2.5918    0.0000 H   0  0  0  0  0  0  0  0  0  0  0  0
    9.1251   -3.2118    0.0000 H   0  0  0  0  0  0  0  0  0  0  0  0
    9.7451   -2.5918    0.0000 H   0  0  0  0  0  0  0  0  0  0  0  0
    4.0648   -2.8344    0.0000 H   0  0  0  0  0  0  0  0  0  0  0  0
    4.4038   -1.4772    0.0000 H   0  0  0  0  0  0  0  0  0  0  0  0
    3.9967   -2.1639    0.0000 H   0  0  0  0  0  0  0  0  0  0  0  0
    7.1108   -1.1035    0.0000 H   0  0  0  0  0  0  0  0  0  0  0  0
    6.4956   -0.4787    0.0000 H   0  0  0  0  0  0  0  0  0  0  0  0
    5.8708   -1.0939    0.0000 H   0  0  0  0  0  0  0  0  0  0  0  0
    4.5048   -4.2500    0.0000 H   0  0  0  0  0  0  0  0  0  0  0  0
    4.7350   -5.0961    0.0000 H   0  0  0  0  0  0  0  0  0  0  0  0
    5.5811   -4.8659    0.0000 H   0  0  0  0  0  0  0  0  0  0  0  0
    5.5072   -4.8662    0.0000 H   0  0  0  0  0  0  0  0  0  0  0  0
    6.3550   -5.0898    0.0000 H   0  0  0  0  0  0  0  0  0  0  0  0
    6.5787   -4.2420    0.0000 H   0  0  0  0  0  0  0  0  0  0  0  0
   11.3811    0.2500    0.0000 H   0  0  0  0  0  0  0  0  0  0  0  0
   11.9743    0.7823    0.0000 H   0  0  0  0  0  0  0  0  0  0  0  0
   10.9887   -2.9749    0.0000 H   0  0  0  0  0  0  0  0  0  0  0  0
   10.1756    1.8218    0.0000 H   0  0  0  0  0  0  0  0  0  0  0  0
    9.3001    1.8692    0.0000 H   0  0  0  0  0  0  0  0  0  0  0  0
    9.2527    0.9937    0.0000 H   0  0  0  0  0  0  0  0  0  0  0  0
   11.6506    2.4398    0.0000 H   0  0  0  0  0  0  0  0  0  0  0  0
   11.0574    1.9075    0.0000 H   0  0  0  0  0  0  0  0  0  0  0  0
   13.0637    1.5649    0.0000 H   0  0  0  0  0  0  0  0  0  0  0  0
    9.7264   -5.6536    0.0000 H   0  0  0  0  0  0  0  0  0  0  0  0
   10.5707   -5.4169    0.0000 H   0  0  0  0  0  0  0  0  0  0  0  0
   10.3340   -4.5727    0.0000 H   0  0  0  0  0  0  0  0  0  0  0  0
    1.6921   -3.0994    0.0000 H   0  0  0  0  0  0  0  0  0  0  0  0
    1.4619   -3.9454    0.0000 H   0  0  0  0  0  0  0  0  0  0  0  0
    2.3079   -4.1756    0.0000 H   0  0  0  0  0  0  0  0  0  0  0  0
   14.0667    2.5764    0.0000 H   0  0  0  0  0  0  0  0  0  0  0  0
   14.5455    3.3110    0.0000 H   0  0  0  0  0  0  0  0  0  0  0  0
   13.8110    3.7898    0.0000 H   0  0  0  0  0  0  0  0  0  0  0  0
   12.1891    5.1332    0.0000 H   0  0  0  0  0  0  0  0  0  0  0  0
  1 13  1  0  0  0  0
  1 77  1  0  0  0  0
  2 19  1  0  0  0  0
  2 34  1  0  0  0  0
  3 26  1  0  0  0  0
  3 35  1  0  0  0  0
  4 34  2  0  0  0  0
  5 35  2  0  0  0  0
  6 41  1  0  0  0  0
  6 93  1  0  0  0  0
  7 41  2  0  0  0  0
  8  9  1  0  0  0  0
  8 10  1  0  0  0  0
  8 16  1  0  0  0  0
  8 24  1  0  0  0  0
  9 12  1  0  0  0  0
  9 13  1  0  0  0  0
  9 25  1  0  0  0  0
 10 17  1  0  0  0  0
 10 23  1  0  0  0  0
 10 42  1  0  0  0  0
 11 14  1  0  0  0  0
 11 15  1  0  0  0  0
 11 22  1  0  0  0  0
 11 28  1  0  0  0  0
 12 15  2  0  0  0  0
 12 19  1  0  0  0  0
 13 17  1  0  0  0  0
 13 43  1  0  0  0  0
 14 20  1  0  0  0  0
 14 21  1  0  0  0  0
 14 44  1  0  0  0  0
 15 18  1  0  0  0  0
 16 18  1  0  0  0  0
 16 45  1  0  0  0  0
 16 46  1  0  0  0  0
 17 47  1  0  0  0  0
 17 48  1  0  0  0  0
 18 49  1  0  0  0  0
 18 50  1  0  0  0  0
 19 21  1  0  0  0  0
 19 51  1  0  0  0  0
 20 26  1  0  0  0  0
 20 29  1  0  0  0  0
 20 30  1  0  0  0  0
 21 52  1  0  0  0  0
 21 53  1  0  0  0  0
 22 27  1  0  0  0  0
 22 54  1  0  0  0  0
 22 55  1  0  0  0  0
 23 31  1  0  0  0  0
 23 32  1  0  0  0  0
 23 56  1  0  0  0  0
 24 57  1  0  0  0  0
 24 58  1  0  0  0  0
 24 59  1  0  0  0  0
 25 60  1  0  0  0  0
 25 61  1  0  0  0  0
 25 62  1  0  0  0  0
 26 27  1  0  0  0  0
 26 63  1  0  0  0  0
 27 64  1  0  0  0  0
 27 65  1  0  0  0  0
 28 66  1  0  0  0  0
 28 67  1  0  0  0  0
 28 68  1  0  0  0  0
 29 69  1  0  0  0  0
 29 70  1  0  0  0  0
 29 71  1  0  0  0  0
 30 72  1  0  0  0  0
 30 73  1  0  0  0  0
 30 74  1  0  0  0  0
 31 33  1  0  0  0  0
 31 75  1  0  0  0  0
 31 76  1  0  0  0  0
 32 78  1  0  0  0  0
 32 79  1  0  0  0  0
 32 80  1  0  0  0  0
 33 36  1  0  0  0  0
 33 81  1  0  0  0  0
 33 82  1  0  0  0  0
 34 37  1  0  0  0  0
 35 38  1  0  0  0  0
 36 39  2  0  0  0  0
 36 83  1  0  0  0  0
 37 84  1  0  0  0  0
 37 85  1  0  0  0  0
 37 86  1  0  0  0  0
 38 87  1  0  0  0  0
 38 88  1  0  0  0  0
 38 89  1  0  0  0  0
 39 40  1  0  0  0  0
 39 41  1  0  0  0  0
 40 90  1  0  0  0  0
 40 91  1  0  0  0  0
 40 92  1  0  0  0  0
M  END
> <PUBCHEM_COMPOUND_CID>
131751707

> <PUBCHEM_COMPOUND_CANONICALIZED>
1

> <PUBCHEM_CACTVS_COMPLEXITY>
1150

> <PUBCHEM_CACTVS_HBOND_ACCEPTOR>
7

> <PUBCHEM_CACTVS_HBOND_DONOR>
2

> <PUBCHEM_CACTVS_ROTATABLE_BOND>
9

> <PUBCHEM_CACTVS_SUBSKEYS>
AAADcfB8OAAAAAAAAAAAAAAAAAAAAYAAAAAwQIAAAAAAAEDAAAAAGgAACAAADxSggAICCAAABgCIAiDSCAAAAAAgAAAACAEAAEgAFAIAIQACUAAEwAAIMYPA4PwPgAAAAAAAAABAAAYAADAAAYAADAAAAA==

> <PUBCHEM_IUPAC_OPENEYE_NAME>
(Z)-6-(3,7-diacetoxy-15-hydroxy-4,4,10,13,14-pentamethyl-2,3,5,6,7,11,12,15,16,17-decahydro-1H-cyclopenta[a]phenanthren-17-yl)-2-methyl-hept-2-enoic acid

> <PUBCHEM_IUPAC_CAS_NAME>
(Z)-6-(3,7-diacetyloxy-15-hydroxy-4,4,10,13,14-pentamethyl-2,3,5,6,7,11,12,15,16,17-decahydro-1H-cyclopenta[a]phenanthren-17-yl)-2-methyl-2-heptenoic acid

> <PUBCHEM_IUPAC_NAME_MARKUP>
(<I>Z</I>)-6-(3,7-diacetyloxy-15-hydroxy-4,4,10,13,14-pentamethyl-2,3,5,6,7,11,12,15,16,17-decahydro-1<I>H</I>-cyclopenta[a]phenanthren-17-yl)-2-methylhept-2-enoic acid

> <PUBCHEM_IUPAC_NAME>
(Z)-6-(3,7-diacetyloxy-15-hydroxy-4,4,10,13,14-pentamethyl-2,3,5,6,7,11,12,15,16,17-decahydro-1H-cyclopenta[a]phenanthren-17-yl)-2-methylhept-2-enoic acid

> <PUBCHEM_IUPAC_SYSTEMATIC_NAME>
(Z)-6-(3,7-diacetyloxy-4,4,10,13,14-pentamethyl-15-oxidanyl-2,3,5,6,7,11,12,15,16,17-decahydro-1H-cyclopenta[a]phenanthren-17-yl)-2-methyl-hept-2-enoic acid

> <PUBCHEM_IUPAC_TRADITIONAL_NAME>
(Z)-6-(3,7-diacetoxy-15-hydroxy-4,4,10,13,14-pentamethyl-2,3,5,6,7,11,12,15,16,17-decahydro-1H-cyclopenta[a]phenanthren-17-yl)-2-methyl-hept-2-enoic acid

> <PUBCHEM_IUPAC_INCHI>
InChI=1S/C34H52O7/c1-19(11-10-12-20(2)30(38)39)24-17-27(37)34(9)29-23(13-16-33(24,34)8)32(7)15-14-28(41-22(4)36)31(5,6)26(32)18-25(29)40-21(3)35/h12,19,24-28,37H,10-11,13-18H2,1-9H3,(H,38,39)/b20-12-

> <PUBCHEM_IUPAC_INCHIKEY>
JBMVFHJFFZPAJI-NDENLUEZSA-N

> <PUBCHEM_XLOGP3_AA>
6.1

> <PUBCHEM_EXACT_MASS>
572.371304

> <PUBCHEM_MOLECULAR_FORMULA>
C34H52O7

> <PUBCHEM_MOLECULAR_WEIGHT>
572.8

> <PUBCHEM_OPENEYE_CAN_SMILES>
CC(CCC=C(C)C(=O)O)C1CC(C2(C1(CCC3=C2C(CC4C3(CCC(C4(C)C)OC(=O)C)C)OC(=O)C)C)C)O

> <PUBCHEM_OPENEYE_ISO_SMILES>
CC(CC/C=C(/C)\C(=O)O)C1CC(C2(C1(CCC3=C2C(CC4C3(CCC(C4(C)C)OC(=O)C)C)OC(=O)C)C)C)O

> <PUBCHEM_CACTVS_TPSA>
110

> <PUBCHEM_MONOISOTOPIC_WEIGHT>
572.371304

> <PUBCHEM_TOTAL_CHARGE>
0

> <PUBCHEM_HEAVY_ATOM_COUNT>
41

> <PUBCHEM_ATOM_DEF_STEREO_COUNT>
0

> <PUBCHEM_ATOM_UDEF_STEREO_COUNT>
9

> <PUBCHEM_BOND_DEF_STEREO_COUNT>
1

> <PUBCHEM_BOND_UDEF_STEREO_COUNT>
0

> <PUBCHEM_ISOTOPIC_ATOM_COUNT>
0

> <PUBCHEM_COMPONENT_COUNT>
1

> <PUBCHEM_CACTVS_TAUTO_COUNT>
-1

> <PUBCHEM_COORDINATE_TYPE>
1
5
255

> <PUBCHEM_BONDANNOTATIONS>
13  1  3
10  17  3
11  28  3
14  21  3
19  2  3
23  32  3
26  3  3
8  24  3
9  25  3

$$$$
