131751708
  -OEChem-09122004172D

 96 99  0     1  0  0  0  0  0999 V2000
    9.1469   -3.7115    0.0000 O   0  0  0  0  0  0  0  0  0  0  0  0
    3.7320   -3.7323    0.0000 O   0  0  0  0  0  0  0  0  0  0  0  0
   12.0284    0.0372    0.0000 O   0  0  0  0  0  0  0  0  0  0  0  0
    2.8718   -2.2290    0.0000 O   0  0  0  0  0  0  0  0  0  0  0  0
   13.3175    1.1939    0.0000 O   0  0  0  0  0  0  0  0  0  0  0  0
   12.6032    4.5835    0.0000 O   0  0  0  0  0  0  0  0  0  0  0  0
   12.9603    2.8887    0.0000 O   0  0  0  0  0  0  0  0  0  0  0  0
    9.1251   -0.6800    0.0000 C   0  0  3  0  0  0  0  0  0  0  0  0
    9.1251   -1.6800    0.0000 C   0  0  3  0  0  0  0  0  0  0  0  0
   10.0713   -0.3753    0.0000 C   0  0  3  0  0  0  0  0  0  0  0  0
    6.4831   -2.1869    0.0000 C   0  0  3  0  0  0  0  0  0  0  0  0
    8.2591   -2.1800    0.0000 C   0  0  0  0  0  0  0  0  0  0  0  0
    6.4750   -3.2284    0.0000 C   0  0  3  0  0  0  0  0  0  0  0  0
    7.3931   -1.6800    0.0000 C   0  0  0  0  0  0  0  0  0  0  0  0
   10.0713   -1.9847    0.0000 C   0  0  0  0  0  0  0  0  0  0  0  0
    8.2591   -0.1800    0.0000 C   0  0  0  0  0  0  0  0  0  0  0  0
   10.6550   -1.1800    0.0000 C   0  0  0  0  0  0  0  0  0  0  0  0
    7.3931   -0.6800    0.0000 C   0  0  0  0  0  0  0  0  0  0  0  0
    8.2752   -3.2215    0.0000 C   0  0  3  0  0  0  0  0  0  0  0  0
    5.5396   -3.7782    0.0000 C   0  0  0  0  0  0  0  0  0  0  0  0
    7.3771   -3.7493    0.0000 C   0  0  0  0  0  0  0  0  0  0  0  0
    5.5562   -1.6228    0.0000 C   0  0  0  0  0  0  0  0  0  0  0  0
   10.3820    0.5752    0.0000 C   0  0  3  0  0  0  0  0  0  0  0  0
    9.1251    0.3200    0.0000 C   0  0  0  0  0  0  0  0  0  0  0  0
    9.1251   -2.6800    0.0000 C   0  0  0  0  0  0  0  0  0  0  0  0
    4.6000   -3.2357    0.0000 C   0  0  3  0  0  0  0  0  0  0  0  0
    4.6084   -2.1507    0.0000 C   0  0  0  0  0  0  0  0  0  0  0  0
    6.4908   -1.1869    0.0000 C   0  0  0  0  0  0  0  0  0  0  0  0
   11.3605    0.7815    0.0000 C   0  0  3  0  0  0  0  0  0  0  0  0
    5.0430   -4.6461    0.0000 C   0  0  0  0  0  0  0  0  0  0  0  0
    6.0430   -4.6423    0.0000 C   0  0  0  0  0  0  0  0  0  0  0  0
    9.7142    1.3196    0.0000 C   0  0  0  0  0  0  0  0  0  0  0  0
   11.6712    1.7320    0.0000 C   0  0  0  0  0  0  0  0  0  0  0  0
    9.1585   -4.7114    0.0000 C   0  0  0  0  0  0  0  0  0  0  0  0
    2.8680   -3.2290    0.0000 C   0  0  0  0  0  0  0  0  0  0  0  0
   11.0033    2.4763    0.0000 C   0  0  0  0  0  0  0  0  0  0  0  0
   13.0069    0.2434    0.0000 C   0  0  0  0  0  0  0  0  0  0  0  0
    2.0000   -3.7257    0.0000 C   0  0  0  0  0  0  0  0  0  0  0  0
   11.3140    3.4268    0.0000 C   0  0  0  0  0  0  0  0  0  0  0  0
   13.6747   -0.5009    0.0000 C   0  0  0  0  0  0  0  0  0  0  0  0
   10.6461    4.1711    0.0000 C   0  0  0  0  0  0  0  0  0  0  0  0
   12.2925    3.6330    0.0000 C   0  0  0  0  0  0  0  0  0  0  0  0
   10.6838   -0.2791    0.0000 H   0  0  0  0  0  0  0  0  0  0  0  0
    6.4774   -3.8484    0.0000 H   0  0  0  0  0  0  0  0  0  0  0  0
    9.8203   -2.5516    0.0000 H   0  0  0  0  0  0  0  0  0  0  0  0
   10.6087   -2.2940    0.0000 H   0  0  0  0  0  0  0  0  0  0  0  0
    8.6576    0.2949    0.0000 H   0  0  0  0  0  0  0  0  0  0  0  0
    7.8606    0.2949    0.0000 H   0  0  0  0  0  0  0  0  0  0  0  0
   11.1158   -1.5947    0.0000 H   0  0  0  0  0  0  0  0  0  0  0  0
   11.1158   -0.7653    0.0000 H   0  0  0  0  0  0  0  0  0  0  0  0
    7.1810   -0.0974    0.0000 H   0  0  0  0  0  0  0  0  0  0  0  0
    6.7825   -0.7877    0.0000 H   0  0  0  0  0  0  0  0  0  0  0  0
    8.2811   -3.8415    0.0000 H   0  0  0  0  0  0  0  0  0  0  0  0
    6.9798   -4.2252    0.0000 H   0  0  0  0  0  0  0  0  0  0  0  0
    7.7781   -4.2222    0.0000 H   0  0  0  0  0  0  0  0  0  0  0  0
    5.9644   -1.1561    0.0000 H   0  0  0  0  0  0  0  0  0  0  0  0
    5.1663   -1.1407    0.0000 H   0  0  0  0  0  0  0  0  0  0  0  0
   10.5746    1.1646    0.0000 H   0  0  0  0  0  0  0  0  0  0  0  0
    9.7451    0.3200    0.0000 H   0  0  0  0  0  0  0  0  0  0  0  0
    9.1251    0.9400    0.0000 H   0  0  0  0  0  0  0  0  0  0  0  0
    8.5051    0.3200    0.0000 H   0  0  0  0  0  0  0  0  0  0  0  0
    8.5051   -2.6800    0.0000 H   0  0  0  0  0  0  0  0  0  0  0  0
    9.1251   -3.3000    0.0000 H   0  0  0  0  0  0  0  0  0  0  0  0
    9.7451   -2.6800    0.0000 H   0  0  0  0  0  0  0  0  0  0  0  0
    4.0648   -2.9226    0.0000 H   0  0  0  0  0  0  0  0  0  0  0  0
    4.4038   -1.5654    0.0000 H   0  0  0  0  0  0  0  0  0  0  0  0
    3.9967   -2.2521    0.0000 H   0  0  0  0  0  0  0  0  0  0  0  0
    7.1108   -1.1917    0.0000 H   0  0  0  0  0  0  0  0  0  0  0  0
    6.4956   -0.5669    0.0000 H   0  0  0  0  0  0  0  0  0  0  0  0
    5.8708   -1.1821    0.0000 H   0  0  0  0  0  0  0  0  0  0  0  0
   11.1679    0.1921    0.0000 H   0  0  0  0  0  0  0  0  0  0  0  0
    4.5048   -4.3382    0.0000 H   0  0  0  0  0  0  0  0  0  0  0  0
    4.7350   -5.1842    0.0000 H   0  0  0  0  0  0  0  0  0  0  0  0
    5.5811   -4.9540    0.0000 H   0  0  0  0  0  0  0  0  0  0  0  0
    5.5072   -4.9543    0.0000 H   0  0  0  0  0  0  0  0  0  0  0  0
    6.3550   -5.1780    0.0000 H   0  0  0  0  0  0  0  0  0  0  0  0
    6.5787   -4.3302    0.0000 H   0  0  0  0  0  0  0  0  0  0  0  0
   10.1756    1.7336    0.0000 H   0  0  0  0  0  0  0  0  0  0  0  0
    9.3001    1.7810    0.0000 H   0  0  0  0  0  0  0  0  0  0  0  0
    9.2527    0.9055    0.0000 H   0  0  0  0  0  0  0  0  0  0  0  0
   12.2181    1.4400    0.0000 H   0  0  0  0  0  0  0  0  0  0  0  0
   12.0537    2.2199    0.0000 H   0  0  0  0  0  0  0  0  0  0  0  0
    8.5385   -4.7186    0.0000 H   0  0  0  0  0  0  0  0  0  0  0  0
    9.1656   -5.3314    0.0000 H   0  0  0  0  0  0  0  0  0  0  0  0
    9.7784   -4.7042    0.0000 H   0  0  0  0  0  0  0  0  0  0  0  0
   10.3967    2.3484    0.0000 H   0  0  0  0  0  0  0  0  0  0  0  0
    1.6921   -3.1875    0.0000 H   0  0  0  0  0  0  0  0  0  0  0  0
    1.4619   -4.0336    0.0000 H   0  0  0  0  0  0  0  0  0  0  0  0
    2.3079   -4.2638    0.0000 H   0  0  0  0  0  0  0  0  0  0  0  0
   13.2132   -0.9150    0.0000 H   0  0  0  0  0  0  0  0  0  0  0  0
   14.0888   -0.9624    0.0000 H   0  0  0  0  0  0  0  0  0  0  0  0
   14.1362   -0.0869    0.0000 H   0  0  0  0  0  0  0  0  0  0  0  0
   11.1076    4.5852    0.0000 H   0  0  0  0  0  0  0  0  0  0  0  0
   10.2321    4.6326    0.0000 H   0  0  0  0  0  0  0  0  0  0  0  0
   10.1847    3.7570    0.0000 H   0  0  0  0  0  0  0  0  0  0  0  0
   13.2098    4.7114    0.0000 H   0  0  0  0  0  0  0  0  0  0  0  0
  1 19  1  0  0  0  0
  1 34  1  0  0  0  0
  2 26  1  0  0  0  0
  2 35  1  0  0  0  0
  3 29  1  0  0  0  0
  3 37  1  0  0  0  0
  4 35  2  0  0  0  0
  5 37  2  0  0  0  0
  6 42  1  0  0  0  0
  6 96  1  0  0  0  0
  7 42  2  0  0  0  0
  8  9  1  0  0  0  0
  8 10  1  0  0  0  0
  8 16  1  0  0  0  0
  8 24  1  0  0  0  0
  9 12  1  0  0  0  0
  9 15  1  0  0  0  0
  9 25  1  0  0  0  0
 10 17  1  0  0  0  0
 10 23  1  0  0  0  0
 10 43  1  0  0  0  0
 11 13  1  0  0  0  0
 11 14  1  0  0  0  0
 11 22  1  0  0  0  0
 11 28  1  0  0  0  0
 12 14  2  0  0  0  0
 12 19  1  0  0  0  0
 13 20  1  0  0  0  0
 13 21  1  0  0  0  0
 13 44  1  0  0  0  0
 14 18  1  0  0  0  0
 15 17  1  0  0  0  0
 15 45  1  0  0  0  0
 15 46  1  0  0  0  0
 16 18  1  0  0  0  0
 16 47  1  0  0  0  0
 16 48  1  0  0  0  0
 17 49  1  0  0  0  0
 17 50  1  0  0  0  0
 18 51  1  0  0  0  0
 18 52  1  0  0  0  0
 19 21  1  0  0  0  0
 19 53  1  0  0  0  0
 20 26  1  0  0  0  0
 20 30  1  0  0  0  0
 20 31  1  0  0  0  0
 21 54  1  0  0  0  0
 21 55  1  0  0  0  0
 22 27  1  0  0  0  0
 22 56  1  0  0  0  0
 22 57  1  0  0  0  0
 23 29  1  0  0  0  0
 23 32  1  0  0  0  0
 23 58  1  0  0  0  0
 24 59  1  0  0  0  0
 24 60  1  0  0  0  0
 24 61  1  0  0  0  0
 25 62  1  0  0  0  0
 25 63  1  0  0  0  0
 25 64  1  0  0  0  0
 26 27  1  0  0  0  0
 26 65  1  0  0  0  0
 27 66  1  0  0  0  0
 27 67  1  0  0  0  0
 28 68  1  0  0  0  0
 28 69  1  0  0  0  0
 28 70  1  0  0  0  0
 29 33  1  0  0  0  0
 29 71  1  0  0  0  0
 30 72  1  0  0  0  0
 30 73  1  0  0  0  0
 30 74  1  0  0  0  0
 31 75  1  0  0  0  0
 31 76  1  0  0  0  0
 31 77  1  0  0  0  0
 32 78  1  0  0  0  0
 32 79  1  0  0  0  0
 32 80  1  0  0  0  0
 33 36  1  0  0  0  0
 33 81  1  0  0  0  0
 33 82  1  0  0  0  0
 34 83  1  0  0  0  0
 34 84  1  0  0  0  0
 34 85  1  0  0  0  0
 35 38  1  0  0  0  0
 36 39  2  0  0  0  0
 36 86  1  0  0  0  0
 37 40  1  0  0  0  0
 38 87  1  0  0  0  0
 38 88  1  0  0  0  0
 38 89  1  0  0  0  0
 39 41  1  0  0  0  0
 39 42  1  0  0  0  0
 40 90  1  0  0  0  0
 40 91  1  0  0  0  0
 40 92  1  0  0  0  0
 41 93  1  0  0  0  0
 41 94  1  0  0  0  0
 41 95  1  0  0  0  0
M  END
> <PUBCHEM_COMPOUND_CID>
131751708

> <PUBCHEM_COMPOUND_CANONICALIZED>
1

> <PUBCHEM_CACTVS_COMPLEXITY>
1170

> <PUBCHEM_CACTVS_HBOND_ACCEPTOR>
7

> <PUBCHEM_CACTVS_HBOND_DONOR>
1

> <PUBCHEM_CACTVS_ROTATABLE_BOND>
10

> <PUBCHEM_CACTVS_SUBSKEYS>
AAADcfB8OAAAAAAAAAAAAAAAAAAAAYAAAAAwQIAAAAAAAEDAAAAAGgAACAAADxSggAICCAAABgCIAiDSCAAAAAAgAAAACAEAAEgABAIAIQACUAAEwAAIMYOA4PwPgAAAAAAAAABAAAYAADAAAQAACAAAAA==

> <PUBCHEM_IUPAC_OPENEYE_NAME>
(Z)-5-acetoxy-6-(3-acetoxy-7-methoxy-4,4,10,13,14-pentamethyl-2,3,5,6,7,11,12,15,16,17-decahydro-1H-cyclopenta[a]phenanthren-17-yl)-2-methyl-hept-2-enoic acid

> <PUBCHEM_IUPAC_CAS_NAME>
(Z)-5-acetyloxy-6-(3-acetyloxy-7-methoxy-4,4,10,13,14-pentamethyl-2,3,5,6,7,11,12,15,16,17-decahydro-1H-cyclopenta[a]phenanthren-17-yl)-2-methyl-2-heptenoic acid

> <PUBCHEM_IUPAC_NAME_MARKUP>
(<I>Z</I>)-5-acetyloxy-6-(3-acetyloxy-7-methoxy-4,4,10,13,14-pentamethyl-2,3,5,6,7,11,12,15,16,17-decahydro-1<I>H</I>-cyclopenta[a]phenanthren-17-yl)-2-methylhept-2-enoic acid

> <PUBCHEM_IUPAC_NAME>
(Z)-5-acetyloxy-6-(3-acetyloxy-7-methoxy-4,4,10,13,14-pentamethyl-2,3,5,6,7,11,12,15,16,17-decahydro-1H-cyclopenta[a]phenanthren-17-yl)-2-methylhept-2-enoic acid

> <PUBCHEM_IUPAC_SYSTEMATIC_NAME>
(Z)-5-acetyloxy-6-(3-acetyloxy-7-methoxy-4,4,10,13,14-pentamethyl-2,3,5,6,7,11,12,15,16,17-decahydro-1H-cyclopenta[a]phenanthren-17-yl)-2-methyl-hept-2-enoic acid

> <PUBCHEM_IUPAC_TRADITIONAL_NAME>
(Z)-5-acetoxy-6-(3-acetoxy-7-methoxy-4,4,10,13,14-pentamethyl-2,3,5,6,7,11,12,15,16,17-decahydro-1H-cyclopenta[a]phenanthren-17-yl)-2-methyl-hept-2-enoic acid

> <PUBCHEM_IUPAC_INCHI>
InChI=1S/C35H54O7/c1-20(31(38)39)11-12-26(41-22(3)36)21(2)24-13-18-35(9)30-25(14-17-34(24,35)8)33(7)16-15-29(42-23(4)37)32(5,6)28(33)19-27(30)40-10/h11,21,24,26-29H,12-19H2,1-10H3,(H,38,39)/b20-11-

> <PUBCHEM_IUPAC_INCHIKEY>
UBGHTOOEMRLEGM-JAIQZWGSSA-N

> <PUBCHEM_XLOGP3_AA>
6.8

> <PUBCHEM_EXACT_MASS>
586.386954

> <PUBCHEM_MOLECULAR_FORMULA>
C35H54O7

> <PUBCHEM_MOLECULAR_WEIGHT>
586.8

> <PUBCHEM_OPENEYE_CAN_SMILES>
CC(C1CCC2(C1(CCC3=C2C(CC4C3(CCC(C4(C)C)OC(=O)C)C)OC)C)C)C(CC=C(C)C(=O)O)OC(=O)C

> <PUBCHEM_OPENEYE_ISO_SMILES>
CC(C1CCC2(C1(CCC3=C2C(CC4C3(CCC(C4(C)C)OC(=O)C)C)OC)C)C)C(C/C=C(/C)\C(=O)O)OC(=O)C

> <PUBCHEM_CACTVS_TPSA>
99.1

> <PUBCHEM_MONOISOTOPIC_WEIGHT>
586.386954

> <PUBCHEM_TOTAL_CHARGE>
0

> <PUBCHEM_HEAVY_ATOM_COUNT>
42

> <PUBCHEM_ATOM_DEF_STEREO_COUNT>
0

> <PUBCHEM_ATOM_UDEF_STEREO_COUNT>
9

> <PUBCHEM_BOND_DEF_STEREO_COUNT>
1

> <PUBCHEM_BOND_UDEF_STEREO_COUNT>
0

> <PUBCHEM_ISOTOPIC_ATOM_COUNT>
0

> <PUBCHEM_COMPONENT_COUNT>
1

> <PUBCHEM_CACTVS_TAUTO_COUNT>
-1

> <PUBCHEM_COORDINATE_TYPE>
1
5
255

> <PUBCHEM_BONDANNOTATIONS>
19  1  3
10  17  3
11  28  3
13  21  3
26  2  3
23  32  3
29  33  3
8  24  3
9  25  3

$$$$
