131751951
  -OEChem-09122004312D

 81 84  0     1  0  0  0  0  0999 V2000
    7.9506   -3.4751    0.0000 O   0  0  0  0  0  0  0  0  0  0  0  0
    2.5357   -3.4959    0.0000 O   0  0  0  0  0  0  0  0  0  0  0  0
    9.1857   -2.6989    0.0000 O   0  0  0  0  0  0  0  0  0  0  0  0
    5.3307    0.0564    0.0000 O   0  0  0  0  0  0  0  0  0  0  0  0
    9.8070    2.7127    0.0000 O   0  0  0  0  0  0  0  0  0  0  0  0
   13.0532    4.2819    0.0000 O   0  0  0  0  0  0  0  0  0  0  0  0
   13.4104    2.5870    0.0000 O   0  0  0  0  0  0  0  0  0  0  0  0
    7.9288   -0.4436    0.0000 C   0  0  3  0  0  0  0  0  0  0  0  0
    7.9288   -1.4436    0.0000 C   0  0  3  0  0  0  0  0  0  0  0  0
    5.2868   -1.9504    0.0000 C   0  0  3  0  0  0  0  0  0  0  0  0
    5.2787   -2.9920    0.0000 C   0  0  3  0  0  0  0  0  0  0  0  0
    8.8750   -0.1389    0.0000 C   0  0  3  0  0  0  0  0  0  0  0  0
    7.0628   -1.9436    0.0000 C   0  0  0  0  0  0  0  0  0  0  0  0
    6.1968   -1.4436    0.0000 C   0  0  0  0  0  0  0  0  0  0  0  0
    4.3433   -3.5418    0.0000 C   0  0  0  0  0  0  0  0  0  0  0  0
    7.0628    0.0564    0.0000 C   0  0  0  0  0  0  0  0  0  0  0  0
    6.1808   -3.5129    0.0000 C   0  0  0  0  0  0  0  0  0  0  0  0
    7.0789   -2.9851    0.0000 C   0  0  3  0  0  0  0  0  0  0  0  0
    4.3599   -1.3864    0.0000 C   0  0  0  0  0  0  0  0  0  0  0  0
    9.4586   -0.9436    0.0000 C   0  0  0  0  0  0  0  0  0  0  0  0
    8.8750   -1.7483    0.0000 C   0  0  0  0  0  0  0  0  0  0  0  0
    3.4037   -2.9993    0.0000 C   0  0  3  0  0  0  0  0  0  0  0  0
    6.1968   -0.4436    0.0000 C   0  0  0  0  0  0  0  0  0  0  0  0
    9.1857    0.8116    0.0000 C   0  0  3  0  0  0  0  0  0  0  0  0
    7.9288    0.5564    0.0000 C   0  0  0  0  0  0  0  0  0  0  0  0
    3.4120   -1.9143    0.0000 C   0  0  0  0  0  0  0  0  0  0  0  0
    7.9288   -2.4436    0.0000 C   0  0  0  0  0  0  0  0  0  0  0  0
    5.2945   -0.9505    0.0000 C   0  0  0  0  0  0  0  0  0  0  0  0
    3.8467   -4.4097    0.0000 C   0  0  0  0  0  0  0  0  0  0  0  0
    4.8466   -4.4059    0.0000 C   0  0  0  0  0  0  0  0  0  0  0  0
   10.1642    1.0179    0.0000 C   0  0  0  0  0  0  0  0  0  0  0  0
    8.5179    1.5560    0.0000 C   0  0  0  0  0  0  0  0  0  0  0  0
   10.4749    1.9684    0.0000 C   0  0  3  0  0  0  0  0  0  0  0  0
   11.4534    2.1746    0.0000 C   0  0  0  0  0  0  0  0  0  0  0  0
   11.7640    3.1251    0.0000 C   0  0  0  0  0  0  0  0  0  0  0  0
   11.0962    3.8694    0.0000 C   0  0  0  0  0  0  0  0  0  0  0  0
   12.7425    3.3314    0.0000 C   0  0  0  0  0  0  0  0  0  0  0  0
    5.2811   -3.6120    0.0000 H   0  0  0  0  0  0  0  0  0  0  0  0
    9.4875   -0.0427    0.0000 H   0  0  0  0  0  0  0  0  0  0  0  0
    7.4613    0.5313    0.0000 H   0  0  0  0  0  0  0  0  0  0  0  0
    6.6643    0.5313    0.0000 H   0  0  0  0  0  0  0  0  0  0  0  0
    5.7835   -3.9888    0.0000 H   0  0  0  0  0  0  0  0  0  0  0  0
    6.5818   -3.9858    0.0000 H   0  0  0  0  0  0  0  0  0  0  0  0
    7.0848   -3.6051    0.0000 H   0  0  0  0  0  0  0  0  0  0  0  0
    4.7681   -0.9197    0.0000 H   0  0  0  0  0  0  0  0  0  0  0  0
    3.9700   -0.9043    0.0000 H   0  0  0  0  0  0  0  0  0  0  0  0
    9.9195   -1.3583    0.0000 H   0  0  0  0  0  0  0  0  0  0  0  0
    9.9195   -0.5289    0.0000 H   0  0  0  0  0  0  0  0  0  0  0  0
    3.4025   -3.6193    0.0000 H   0  0  0  0  0  0  0  0  0  0  0  0
    9.3783    1.4010    0.0000 H   0  0  0  0  0  0  0  0  0  0  0  0
    8.5488    0.5564    0.0000 H   0  0  0  0  0  0  0  0  0  0  0  0
    7.9288    1.1764    0.0000 H   0  0  0  0  0  0  0  0  0  0  0  0
    7.3088    0.5564    0.0000 H   0  0  0  0  0  0  0  0  0  0  0  0
    3.2075   -1.3290    0.0000 H   0  0  0  0  0  0  0  0  0  0  0  0
    2.8004   -2.0157    0.0000 H   0  0  0  0  0  0  0  0  0  0  0  0
    7.3088   -2.4436    0.0000 H   0  0  0  0  0  0  0  0  0  0  0  0
    7.9288   -3.0636    0.0000 H   0  0  0  0  0  0  0  0  0  0  0  0
    8.5488   -2.4436    0.0000 H   0  0  0  0  0  0  0  0  0  0  0  0
    5.9145   -0.9553    0.0000 H   0  0  0  0  0  0  0  0  0  0  0  0
    5.2993   -0.3305    0.0000 H   0  0  0  0  0  0  0  0  0  0  0  0
    4.6745   -0.9457    0.0000 H   0  0  0  0  0  0  0  0  0  0  0  0
    3.3085   -4.1018    0.0000 H   0  0  0  0  0  0  0  0  0  0  0  0
    3.5387   -4.9478    0.0000 H   0  0  0  0  0  0  0  0  0  0  0  0
    4.3848   -4.7176    0.0000 H   0  0  0  0  0  0  0  0  0  0  0  0
    4.3109   -4.7179    0.0000 H   0  0  0  0  0  0  0  0  0  0  0  0
    5.1587   -4.9416    0.0000 H   0  0  0  0  0  0  0  0  0  0  0  0
    5.3824   -4.0938    0.0000 H   0  0  0  0  0  0  0  0  0  0  0  0
   10.1848    0.3982    0.0000 H   0  0  0  0  0  0  0  0  0  0  0  0
   10.7780    0.9305    0.0000 H   0  0  0  0  0  0  0  0  0  0  0  0
    8.9793    1.9700    0.0000 H   0  0  0  0  0  0  0  0  0  0  0  0
    8.1038    2.0174    0.0000 H   0  0  0  0  0  0  0  0  0  0  0  0
    8.0564    1.1419    0.0000 H   0  0  0  0  0  0  0  0  0  0  0  0
    7.9578   -4.0950    0.0000 H   0  0  0  0  0  0  0  0  0  0  0  0
    2.0000   -3.1839    0.0000 H   0  0  0  0  0  0  0  0  0  0  0  0
   10.6675    2.5577    0.0000 H   0  0  0  0  0  0  0  0  0  0  0  0
   11.8674    1.7131    0.0000 H   0  0  0  0  0  0  0  0  0  0  0  0
    9.9996    3.3020    0.0000 H   0  0  0  0  0  0  0  0  0  0  0  0
   11.5577    4.2835    0.0000 H   0  0  0  0  0  0  0  0  0  0  0  0
   10.6821    4.3309    0.0000 H   0  0  0  0  0  0  0  0  0  0  0  0
   10.6347    3.4554    0.0000 H   0  0  0  0  0  0  0  0  0  0  0  0
   13.6599    4.4097    0.0000 H   0  0  0  0  0  0  0  0  0  0  0  0
  1 18  1  0  0  0  0
  1 73  1  0  0  0  0
  2 22  1  0  0  0  0
  2 74  1  0  0  0  0
  3 21  2  0  0  0  0
  4 23  2  0  0  0  0
  5 33  1  0  0  0  0
  5 77  1  0  0  0  0
  6 37  1  0  0  0  0
  6 81  1  0  0  0  0
  7 37  2  0  0  0  0
  8  9  1  0  0  0  0
  8 12  1  0  0  0  0
  8 16  1  0  0  0  0
  8 25  1  0  0  0  0
  9 13  1  0  0  0  0
  9 21  1  0  0  0  0
  9 27  1  0  0  0  0
 10 11  1  0  0  0  0
 10 14  1  0  0  0  0
 10 19  1  0  0  0  0
 10 28  1  0  0  0  0
 11 15  1  0  0  0  0
 11 17  1  0  0  0  0
 11 38  1  0  0  0  0
 12 20  1  0  0  0  0
 12 24  1  0  0  0  0
 12 39  1  0  0  0  0
 13 14  2  0  0  0  0
 13 18  1  0  0  0  0
 14 23  1  0  0  0  0
 15 22  1  0  0  0  0
 15 29  1  0  0  0  0
 15 30  1  0  0  0  0
 16 23  1  0  0  0  0
 16 40  1  0  0  0  0
 16 41  1  0  0  0  0
 17 18  1  0  0  0  0
 17 42  1  0  0  0  0
 17 43  1  0  0  0  0
 18 44  1  0  0  0  0
 19 26  1  0  0  0  0
 19 45  1  0  0  0  0
 19 46  1  0  0  0  0
 20 21  1  0  0  0  0
 20 47  1  0  0  0  0
 20 48  1  0  0  0  0
 22 26  1  0  0  0  0
 22 49  1  0  0  0  0
 24 31  1  0  0  0  0
 24 32  1  0  0  0  0
 24 50  1  0  0  0  0
 25 51  1  0  0  0  0
 25 52  1  0  0  0  0
 25 53  1  0  0  0  0
 26 54  1  0  0  0  0
 26 55  1  0  0  0  0
 27 56  1  0  0  0  0
 27 57  1  0  0  0  0
 27 58  1  0  0  0  0
 28 59  1  0  0  0  0
 28 60  1  0  0  0  0
 28 61  1  0  0  0  0
 29 62  1  0  0  0  0
 29 63  1  0  0  0  0
 29 64  1  0  0  0  0
 30 65  1  0  0  0  0
 30 66  1  0  0  0  0
 30 67  1  0  0  0  0
 31 33  1  0  0  0  0
 31 68  1  0  0  0  0
 31 69  1  0  0  0  0
 32 70  1  0  0  0  0
 32 71  1  0  0  0  0
 32 72  1  0  0  0  0
 33 34  1  0  0  0  0
 33 75  1  0  0  0  0
 34 35  2  0  0  0  0
 34 76  1  0  0  0  0
 35 36  1  0  0  0  0
 35 37  1  0  0  0  0
 36 78  1  0  0  0  0
 36 79  1  0  0  0  0
 36 80  1  0  0  0  0
M  END
> <PUBCHEM_COMPOUND_CID>
131751951

> <PUBCHEM_COMPOUND_CANONICALIZED>
1

> <PUBCHEM_CACTVS_COMPLEXITY>
1090

> <PUBCHEM_CACTVS_HBOND_ACCEPTOR>
7

> <PUBCHEM_CACTVS_HBOND_DONOR>
4

> <PUBCHEM_CACTVS_ROTATABLE_BOND>
5

> <PUBCHEM_CACTVS_SUBSKEYS>
AAADcfB4OAAAAAAAAAAAAAAAAAAAAYAAAAAwQIAAAAAAAEDAAAAAGgAACAAADxSggAICCAAAAgCIAqDSCAAAAAAgAAAACAEAAEgAFBIAAQAAUAAEgAAIEYOK6vSvgAAAAAAAAABAAAYAADAAAQAACAAAAA==

> <PUBCHEM_IUPAC_OPENEYE_NAME>
(E)-6-(3,7-dihydroxy-4,4,10,13,14-pentamethyl-11,15-dioxo-2,3,5,6,7,12,16,17-octahydro-1H-cyclopenta[a]phenanthren-17-yl)-4-hydroxy-2-methyl-hept-2-enoic acid

> <PUBCHEM_IUPAC_CAS_NAME>
(E)-6-(3,7-dihydroxy-4,4,10,13,14-pentamethyl-11,15-dioxo-2,3,5,6,7,12,16,17-octahydro-1H-cyclopenta[a]phenanthren-17-yl)-4-hydroxy-2-methyl-2-heptenoic acid

> <PUBCHEM_IUPAC_NAME_MARKUP>
(<I>E</I>)-6-(3,7-dihydroxy-4,4,10,13,14-pentamethyl-11,15-dioxo-2,3,5,6,7,12,16,17-octahydro-1<I>H</I>-cyclopenta[a]phenanthren-17-yl)-4-hydroxy-2-methylhept-2-enoic acid

> <PUBCHEM_IUPAC_NAME>
(E)-6-(3,7-dihydroxy-4,4,10,13,14-pentamethyl-11,15-dioxo-2,3,5,6,7,12,16,17-octahydro-1H-cyclopenta[a]phenanthren-17-yl)-4-hydroxy-2-methylhept-2-enoic acid

> <PUBCHEM_IUPAC_SYSTEMATIC_NAME>
(E)-2-methyl-4-oxidanyl-6-[4,4,10,13,14-pentamethyl-3,7-bis(oxidanyl)-11,15-bis(oxidanylidene)-2,3,5,6,7,12,16,17-octahydro-1H-cyclopenta[a]phenanthren-17-yl]hept-2-enoic acid

> <PUBCHEM_IUPAC_TRADITIONAL_NAME>
(E)-6-(3,7-dihydroxy-11,15-diketo-4,4,10,13,14-pentamethyl-2,3,5,6,7,12,16,17-octahydro-1H-cyclopenta[a]phenanthren-17-yl)-4-hydroxy-2-methyl-hept-2-enoic acid

> <PUBCHEM_IUPAC_INCHI>
InChI=1S/C30H44O7/c1-15(10-17(31)11-16(2)26(36)37)18-12-23(35)30(7)25-19(32)13-21-27(3,4)22(34)8-9-28(21,5)24(25)20(33)14-29(18,30)6/h11,15,17-19,21-22,31-32,34H,8-10,12-14H2,1-7H3,(H,36,37)/b16-11+

> <PUBCHEM_IUPAC_INCHIKEY>
MIWGXXQCEDNROQ-LFIBNONCSA-N

> <PUBCHEM_XLOGP3_AA>
2.4

> <PUBCHEM_EXACT_MASS>
516.308704

> <PUBCHEM_MOLECULAR_FORMULA>
C30H44O7

> <PUBCHEM_MOLECULAR_WEIGHT>
516.7

> <PUBCHEM_OPENEYE_CAN_SMILES>
CC(CC(C=C(C)C(=O)O)O)C1CC(=O)C2(C1(CC(=O)C3=C2C(CC4C3(CCC(C4(C)C)O)C)O)C)C

> <PUBCHEM_OPENEYE_ISO_SMILES>
CC(CC(/C=C(\C)/C(=O)O)O)C1CC(=O)C2(C1(CC(=O)C3=C2C(CC4C3(CCC(C4(C)C)O)C)O)C)C

> <PUBCHEM_CACTVS_TPSA>
132

> <PUBCHEM_MONOISOTOPIC_WEIGHT>
516.308704

> <PUBCHEM_TOTAL_CHARGE>
0

> <PUBCHEM_HEAVY_ATOM_COUNT>
37

> <PUBCHEM_ATOM_DEF_STEREO_COUNT>
0

> <PUBCHEM_ATOM_UDEF_STEREO_COUNT>
9

> <PUBCHEM_BOND_DEF_STEREO_COUNT>
1

> <PUBCHEM_BOND_UDEF_STEREO_COUNT>
0

> <PUBCHEM_ISOTOPIC_ATOM_COUNT>
0

> <PUBCHEM_COMPONENT_COUNT>
1

> <PUBCHEM_CACTVS_TAUTO_COUNT>
-1

> <PUBCHEM_COORDINATE_TYPE>
1
5
255

> <PUBCHEM_BONDANNOTATIONS>
18  1  3
10  28  3
11  17  3
12  20  3
22  2  3
24  32  3
33  5  3
8  25  3
9  27  3

$$$$
