131751855
  -OEChem-09122004162D

 99102  0     1  0  0  0  0  0999 V2000
   10.3820   -3.1161    0.0000 O   0  0  0  0  0  0  0  0  0  0  0  0
    9.1469   -3.8923    0.0000 O   0  0  0  0  0  0  0  0  0  0  0  0
    3.7320   -3.9132    0.0000 O   0  0  0  0  0  0  0  0  0  0  0  0
   12.0284   -0.1437    0.0000 O   0  0  0  0  0  0  0  0  0  0  0  0
    8.2983   -5.4022    0.0000 O   0  0  0  0  0  0  0  0  0  0  0  0
    2.8718   -2.4099    0.0000 O   0  0  0  0  0  0  0  0  0  0  0  0
   13.3175    1.0130    0.0000 O   0  0  0  0  0  0  0  0  0  0  0  0
   10.9568    4.9408    0.0000 O   0  0  0  0  0  0  0  0  0  0  0  0
    9.6676    3.7840    0.0000 O   0  0  0  0  0  0  0  0  0  0  0  0
    9.1251   -0.8609    0.0000 C   0  0  3  0  0  0  0  0  0  0  0  0
    9.1251   -1.8609    0.0000 C   0  0  3  0  0  0  0  0  0  0  0  0
   10.0713   -0.5561    0.0000 C   0  0  3  0  0  0  0  0  0  0  0  0
    6.4831   -2.3677    0.0000 C   0  0  3  0  0  0  0  0  0  0  0  0
    8.2591   -2.3609    0.0000 C   0  0  0  0  0  0  0  0  0  0  0  0
   10.0713   -2.1656    0.0000 C   0  0  3  0  0  0  0  0  0  0  0  0
    6.4750   -3.4093    0.0000 C   0  0  3  0  0  0  0  0  0  0  0  0
    7.3931   -1.8609    0.0000 C   0  0  0  0  0  0  0  0  0  0  0  0
    8.2591   -0.3609    0.0000 C   0  0  0  0  0  0  0  0  0  0  0  0
   10.6550   -1.3609    0.0000 C   0  0  0  0  0  0  0  0  0  0  0  0
    7.3931   -0.8609    0.0000 C   0  0  0  0  0  0  0  0  0  0  0  0
    8.2752   -3.4024    0.0000 C   0  0  3  0  0  0  0  0  0  0  0  0
    5.5396   -3.9590    0.0000 C   0  0  0  0  0  0  0  0  0  0  0  0
    7.3771   -3.9301    0.0000 C   0  0  0  0  0  0  0  0  0  0  0  0
   10.3820    0.3944    0.0000 C   0  0  3  0  0  0  0  0  0  0  0  0
    5.5562   -1.8036    0.0000 C   0  0  0  0  0  0  0  0  0  0  0  0
    9.1251    0.1391    0.0000 C   0  0  0  0  0  0  0  0  0  0  0  0
    9.1251   -2.8609    0.0000 C   0  0  0  0  0  0  0  0  0  0  0  0
    4.6000   -3.4165    0.0000 C   0  0  3  0  0  0  0  0  0  0  0  0
    4.6084   -2.3316    0.0000 C   0  0  0  0  0  0  0  0  0  0  0  0
    6.4908   -1.3677    0.0000 C   0  0  0  0  0  0  0  0  0  0  0  0
   11.3605    0.6006    0.0000 C   0  0  3  0  0  0  0  0  0  0  0  0
    5.0430   -4.8270    0.0000 C   0  0  0  0  0  0  0  0  0  0  0  0
    6.0430   -4.8231    0.0000 C   0  0  0  0  0  0  0  0  0  0  0  0
    9.7142    1.1387    0.0000 C   0  0  0  0  0  0  0  0  0  0  0  0
   11.6712    1.5511    0.0000 C   0  0  0  0  0  0  0  0  0  0  0  0
    9.1585   -4.8923    0.0000 C   0  0  0  0  0  0  0  0  0  0  0  0
    2.8680   -3.4099    0.0000 C   0  0  0  0  0  0  0  0  0  0  0  0
   11.0033    2.2954    0.0000 C   0  0  0  0  0  0  0  0  0  0  0  0
   13.0069    0.0625    0.0000 C   0  0  0  0  0  0  0  0  0  0  0  0
   10.0302   -5.3822    0.0000 C   0  0  0  0  0  0  0  0  0  0  0  0
    2.0000   -3.9065    0.0000 C   0  0  0  0  0  0  0  0  0  0  0  0
   11.3140    3.2460    0.0000 C   0  0  0  0  0  0  0  0  0  0  0  0
   13.6747   -0.6818    0.0000 C   0  0  0  0  0  0  0  0  0  0  0  0
   12.2925    3.4522    0.0000 C   0  0  0  0  0  0  0  0  0  0  0  0
   10.6461    3.9902    0.0000 C   0  0  0  0  0  0  0  0  0  0  0  0
   10.6838   -0.4599    0.0000 H   0  0  0  0  0  0  0  0  0  0  0  0
    9.6339   -2.6050    0.0000 H   0  0  0  0  0  0  0  0  0  0  0  0
    6.4774   -4.0293    0.0000 H   0  0  0  0  0  0  0  0  0  0  0  0
    8.6576    0.1141    0.0000 H   0  0  0  0  0  0  0  0  0  0  0  0
    7.8606    0.1141    0.0000 H   0  0  0  0  0  0  0  0  0  0  0  0
   11.1158   -1.7756    0.0000 H   0  0  0  0  0  0  0  0  0  0  0  0
   11.1158   -0.9461    0.0000 H   0  0  0  0  0  0  0  0  0  0  0  0
    7.1810   -0.2783    0.0000 H   0  0  0  0  0  0  0  0  0  0  0  0
    6.7825   -0.9685    0.0000 H   0  0  0  0  0  0  0  0  0  0  0  0
    8.8079   -3.0852    0.0000 H   0  0  0  0  0  0  0  0  0  0  0  0
    6.9798   -4.4061    0.0000 H   0  0  0  0  0  0  0  0  0  0  0  0
    7.7781   -4.4030    0.0000 H   0  0  0  0  0  0  0  0  0  0  0  0
   10.5746    0.9837    0.0000 H   0  0  0  0  0  0  0  0  0  0  0  0
    5.9644   -1.3370    0.0000 H   0  0  0  0  0  0  0  0  0  0  0  0
    5.1663   -1.3216    0.0000 H   0  0  0  0  0  0  0  0  0  0  0  0
    9.7451    0.1391    0.0000 H   0  0  0  0  0  0  0  0  0  0  0  0
    9.1251    0.7591    0.0000 H   0  0  0  0  0  0  0  0  0  0  0  0
    8.5051    0.1391    0.0000 H   0  0  0  0  0  0  0  0  0  0  0  0
    8.5051   -2.8609    0.0000 H   0  0  0  0  0  0  0  0  0  0  0  0
    9.1251   -3.4809    0.0000 H   0  0  0  0  0  0  0  0  0  0  0  0
    9.7451   -2.8609    0.0000 H   0  0  0  0  0  0  0  0  0  0  0  0
    4.0648   -3.1034    0.0000 H   0  0  0  0  0  0  0  0  0  0  0  0
    4.4038   -1.7463    0.0000 H   0  0  0  0  0  0  0  0  0  0  0  0
    3.9967   -2.4330    0.0000 H   0  0  0  0  0  0  0  0  0  0  0  0
    7.1108   -1.3725    0.0000 H   0  0  0  0  0  0  0  0  0  0  0  0
    6.4956   -0.7478    0.0000 H   0  0  0  0  0  0  0  0  0  0  0  0
    5.8708   -1.3630    0.0000 H   0  0  0  0  0  0  0  0  0  0  0  0
   11.1679    0.0113    0.0000 H   0  0  0  0  0  0  0  0  0  0  0  0
    4.5048   -4.5190    0.0000 H   0  0  0  0  0  0  0  0  0  0  0  0
    4.7350   -5.3651    0.0000 H   0  0  0  0  0  0  0  0  0  0  0  0
    5.5811   -5.1349    0.0000 H   0  0  0  0  0  0  0  0  0  0  0  0
    5.5072   -5.1352    0.0000 H   0  0  0  0  0  0  0  0  0  0  0  0
    6.3550   -5.3589    0.0000 H   0  0  0  0  0  0  0  0  0  0  0  0
    6.5787   -4.5111    0.0000 H   0  0  0  0  0  0  0  0  0  0  0  0
   10.9887   -3.2440    0.0000 H   0  0  0  0  0  0  0  0  0  0  0  0
   10.1756    1.5528    0.0000 H   0  0  0  0  0  0  0  0  0  0  0  0
    9.3001    1.6002    0.0000 H   0  0  0  0  0  0  0  0  0  0  0  0
    9.2527    0.7246    0.0000 H   0  0  0  0  0  0  0  0  0  0  0  0
   12.2181    1.2591    0.0000 H   0  0  0  0  0  0  0  0  0  0  0  0
   12.0537    2.0390    0.0000 H   0  0  0  0  0  0  0  0  0  0  0  0
   10.3967    2.1676    0.0000 H   0  0  0  0  0  0  0  0  0  0  0  0
    9.7264   -5.9227    0.0000 H   0  0  0  0  0  0  0  0  0  0  0  0
   10.5707   -5.6860    0.0000 H   0  0  0  0  0  0  0  0  0  0  0  0
   10.3340   -4.8417    0.0000 H   0  0  0  0  0  0  0  0  0  0  0  0
    1.6921   -3.3684    0.0000 H   0  0  0  0  0  0  0  0  0  0  0  0
    1.4619   -4.2144    0.0000 H   0  0  0  0  0  0  0  0  0  0  0  0
    2.3079   -4.4446    0.0000 H   0  0  0  0  0  0  0  0  0  0  0  0
   13.2132   -1.0958    0.0000 H   0  0  0  0  0  0  0  0  0  0  0  0
   14.0888   -1.1432    0.0000 H   0  0  0  0  0  0  0  0  0  0  0  0
   14.1362   -0.2677    0.0000 H   0  0  0  0  0  0  0  0  0  0  0  0
   12.4204    2.8455    0.0000 H   0  0  0  0  0  0  0  0  0  0  0  0
   12.8992    3.5800    0.0000 H   0  0  0  0  0  0  0  0  0  0  0  0
   12.1646    4.0588    0.0000 H   0  0  0  0  0  0  0  0  0  0  0  0
   10.5427    5.4022    0.0000 H   0  0  0  0  0  0  0  0  0  0  0  0
  1 15  1  0  0  0  0
  1 80  1  0  0  0  0
  2 21  1  0  0  0  0
  2 36  1  0  0  0  0
  3 28  1  0  0  0  0
  3 37  1  0  0  0  0
  4 31  1  0  0  0  0
  4 39  1  0  0  0  0
  5 36  2  0  0  0  0
  6 37  2  0  0  0  0
  7 39  2  0  0  0  0
  8 45  1  0  0  0  0
  8 99  1  0  0  0  0
  9 45  2  0  0  0  0
 10 11  1  0  0  0  0
 10 12  1  0  0  0  0
 10 18  1  0  0  0  0
 10 26  1  0  0  0  0
 11 14  1  0  0  0  0
 11 15  1  0  0  0  0
 11 27  1  0  0  0  0
 12 19  1  0  0  0  0
 12 24  1  0  0  0  0
 12 46  1  0  0  0  0
 13 16  1  0  0  0  0
 13 17  1  0  0  0  0
 13 25  1  0  0  0  0
 13 30  1  0  0  0  0
 14 17  2  0  0  0  0
 14 21  1  0  0  0  0
 15 19  1  0  0  0  0
 15 47  1  0  0  0  0
 16 22  1  0  0  0  0
 16 23  1  0  0  0  0
 16 48  1  0  0  0  0
 17 20  1  0  0  0  0
 18 20  1  0  0  0  0
 18 49  1  0  0  0  0
 18 50  1  0  0  0  0
 19 51  1  0  0  0  0
 19 52  1  0  0  0  0
 20 53  1  0  0  0  0
 20 54  1  0  0  0  0
 21 23  1  0  0  0  0
 21 55  1  0  0  0  0
 22 28  1  0  0  0  0
 22 32  1  0  0  0  0
 22 33  1  0  0  0  0
 23 56  1  0  0  0  0
 23 57  1  0  0  0  0
 24 31  1  0  0  0  0
 24 34  1  0  0  0  0
 24 58  1  0  0  0  0
 25 29  1  0  0  0  0
 25 59  1  0  0  0  0
 25 60  1  0  0  0  0
 26 61  1  0  0  0  0
 26 62  1  0  0  0  0
 26 63  1  0  0  0  0
 27 64  1  0  0  0  0
 27 65  1  0  0  0  0
 27 66  1  0  0  0  0
 28 29  1  0  0  0  0
 28 67  1  0  0  0  0
 29 68  1  0  0  0  0
 29 69  1  0  0  0  0
 30 70  1  0  0  0  0
 30 71  1  0  0  0  0
 30 72  1  0  0  0  0
 31 35  1  0  0  0  0
 31 73  1  0  0  0  0
 32 74  1  0  0  0  0
 32 75  1  0  0  0  0
 32 76  1  0  0  0  0
 33 77  1  0  0  0  0
 33 78  1  0  0  0  0
 33 79  1  0  0  0  0
 34 81  1  0  0  0  0
 34 82  1  0  0  0  0
 34 83  1  0  0  0  0
 35 38  1  0  0  0  0
 35 84  1  0  0  0  0
 35 85  1  0  0  0  0
 36 40  1  0  0  0  0
 37 41  1  0  0  0  0
 38 42  2  0  0  0  0
 38 86  1  0  0  0  0
 39 43  1  0  0  0  0
 40 87  1  0  0  0  0
 40 88  1  0  0  0  0
 40 89  1  0  0  0  0
 41 90  1  0  0  0  0
 41 91  1  0  0  0  0
 41 92  1  0  0  0  0
 42 44  1  0  0  0  0
 42 45  1  0  0  0  0
 43 93  1  0  0  0  0
 43 94  1  0  0  0  0
 43 95  1  0  0  0  0
 44 96  1  0  0  0  0
 44 97  1  0  0  0  0
 44 98  1  0  0  0  0
M  END
> <PUBCHEM_COMPOUND_CID>
131751855

> <PUBCHEM_COMPOUND_CANONICALIZED>
1

> <PUBCHEM_CACTVS_COMPLEXITY>
1300

> <PUBCHEM_CACTVS_HBOND_ACCEPTOR>
9

> <PUBCHEM_CACTVS_HBOND_DONOR>
2

> <PUBCHEM_CACTVS_ROTATABLE_BOND>
11

> <PUBCHEM_CACTVS_SUBSKEYS>
AAADcfB8PAAAAAAAAAAAAAAAAAAAAYAAAAAwQIAAAAAAAEDAAAAAGgAACAAADxSggAICCAAABgCIAiDSCAAAAAAgAAAACAEAAEgAFAIAIQACUAAEwAAIMYPA4PwPgAAAAAAAAABAAAYAADAAAYAADAAAAA==

> <PUBCHEM_IUPAC_OPENEYE_NAME>
(E)-5-acetoxy-6-(3,7-diacetoxy-15-hydroxy-4,4,10,13,14-pentamethyl-2,3,5,6,7,11,12,15,16,17-decahydro-1H-cyclopenta[a]phenanthren-17-yl)-2-methyl-hept-2-enoic acid

> <PUBCHEM_IUPAC_CAS_NAME>
(E)-5-acetyloxy-6-(3,7-diacetyloxy-15-hydroxy-4,4,10,13,14-pentamethyl-2,3,5,6,7,11,12,15,16,17-decahydro-1H-cyclopenta[a]phenanthren-17-yl)-2-methyl-2-heptenoic acid

> <PUBCHEM_IUPAC_NAME_MARKUP>
(<I>E</I>)-5-acetyloxy-6-(3,7-diacetyloxy-15-hydroxy-4,4,10,13,14-pentamethyl-2,3,5,6,7,11,12,15,16,17-decahydro-1<I>H</I>-cyclopenta[a]phenanthren-17-yl)-2-methylhept-2-enoic acid

> <PUBCHEM_IUPAC_NAME>
(E)-5-acetyloxy-6-(3,7-diacetyloxy-15-hydroxy-4,4,10,13,14-pentamethyl-2,3,5,6,7,11,12,15,16,17-decahydro-1H-cyclopenta[a]phenanthren-17-yl)-2-methylhept-2-enoic acid

> <PUBCHEM_IUPAC_SYSTEMATIC_NAME>
(E)-5-acetyloxy-6-(3,7-diacetyloxy-4,4,10,13,14-pentamethyl-15-oxidanyl-2,3,5,6,7,11,12,15,16,17-decahydro-1H-cyclopenta[a]phenanthren-17-yl)-2-methyl-hept-2-enoic acid

> <PUBCHEM_IUPAC_TRADITIONAL_NAME>
(E)-5-acetoxy-6-(3,7-diacetoxy-15-hydroxy-4,4,10,13,14-pentamethyl-2,3,5,6,7,11,12,15,16,17-decahydro-1H-cyclopenta[a]phenanthren-17-yl)-2-methyl-hept-2-enoic acid

> <PUBCHEM_IUPAC_INCHI>
InChI=1S/C36H54O9/c1-19(32(41)42)11-12-26(43-21(3)37)20(2)25-17-29(40)36(10)31-24(13-16-35(25,36)9)34(8)15-14-30(45-23(5)39)33(6,7)28(34)18-27(31)44-22(4)38/h11,20,25-30,40H,12-18H2,1-10H3,(H,41,42)/b19-11+

> <PUBCHEM_IUPAC_INCHIKEY>
GHQBLEWBYHWXAC-YBFXNURJSA-N

> <PUBCHEM_XLOGP3_AA>
5.5

> <PUBCHEM_EXACT_MASS>
630.376783

> <PUBCHEM_MOLECULAR_FORMULA>
C36H54O9

> <PUBCHEM_MOLECULAR_WEIGHT>
630.8

> <PUBCHEM_OPENEYE_CAN_SMILES>
CC(C1CC(C2(C1(CCC3=C2C(CC4C3(CCC(C4(C)C)OC(=O)C)C)OC(=O)C)C)C)O)C(CC=C(C)C(=O)O)OC(=O)C

> <PUBCHEM_OPENEYE_ISO_SMILES>
CC(C1CC(C2(C1(CCC3=C2C(CC4C3(CCC(C4(C)C)OC(=O)C)C)OC(=O)C)C)C)O)C(C/C=C(\C)/C(=O)O)OC(=O)C

> <PUBCHEM_CACTVS_TPSA>
136

> <PUBCHEM_MONOISOTOPIC_WEIGHT>
630.376783

> <PUBCHEM_TOTAL_CHARGE>
0

> <PUBCHEM_HEAVY_ATOM_COUNT>
45

> <PUBCHEM_ATOM_DEF_STEREO_COUNT>
0

> <PUBCHEM_ATOM_UDEF_STEREO_COUNT>
10

> <PUBCHEM_BOND_DEF_STEREO_COUNT>
1

> <PUBCHEM_BOND_UDEF_STEREO_COUNT>
0

> <PUBCHEM_ISOTOPIC_ATOM_COUNT>
0

> <PUBCHEM_COMPONENT_COUNT>
1

> <PUBCHEM_CACTVS_TAUTO_COUNT>
-1

> <PUBCHEM_COORDINATE_TYPE>
1
5
255

> <PUBCHEM_BONDANNOTATIONS>
15  1  3
10  26  3
11  27  3
12  19  3
13  30  3
16  23  3
21  2  3
24  34  3
28  3  3
31  35  3

$$$$
