14015440
  -OEChem-09122004592D

 79 82  0     1  0  0  0  0  0999 V2000
    7.4149   -3.4111    0.0000 O   0  0  0  0  0  0  0  0  0  0  0  0
    2.0000   -3.4320    0.0000 O   0  0  0  0  0  0  0  0  0  0  0  0
   12.5175    4.3458    0.0000 O   0  0  0  0  0  0  0  0  0  0  0  0
    7.3931   -0.3797    0.0000 C   0  0  3  0  0  0  0  0  0  0  0  0
    7.3931   -1.3797    0.0000 C   0  0  3  0  0  0  0  0  0  0  0  0
    8.3393   -0.0749    0.0000 C   0  0  3  0  0  0  0  0  0  0  0  0
    6.5271   -1.8797    0.0000 C   0  0  0  0  0  0  0  0  0  0  0  0
    4.7510   -1.8865    0.0000 C   0  0  3  0  0  0  0  0  0  0  0  0
    8.3393   -1.6844    0.0000 C   0  0  0  0  0  0  0  0  0  0  0  0
    5.6610   -1.3797    0.0000 C   0  0  0  0  0  0  0  0  0  0  0  0
    6.5271    0.1203    0.0000 C   0  0  0  0  0  0  0  0  0  0  0  0
    8.9229   -0.8797    0.0000 C   0  0  0  0  0  0  0  0  0  0  0  0
    4.7430   -2.9281    0.0000 C   0  0  3  0  0  0  0  0  0  0  0  0
    5.6610   -0.3797    0.0000 C   0  0  0  0  0  0  0  0  0  0  0  0
    6.5431   -2.9212    0.0000 C   0  0  3  0  0  0  0  0  0  0  0  0
    5.6451   -3.4489    0.0000 C   0  0  0  0  0  0  0  0  0  0  0  0
    8.6500    0.8756    0.0000 C   0  0  3  0  0  0  0  0  0  0  0  0
    7.3931    0.6203    0.0000 C   0  0  0  0  0  0  0  0  0  0  0  0
    7.3931   -2.3797    0.0000 C   0  0  0  0  0  0  0  0  0  0  0  0
    3.8076   -3.4778    0.0000 C   0  0  0  0  0  0  0  0  0  0  0  0
    3.8242   -1.3224    0.0000 C   0  0  0  0  0  0  0  0  0  0  0  0
    4.7587   -0.8866    0.0000 C   0  0  0  0  0  0  0  0  0  0  0  0
    2.8763   -1.8504    0.0000 C   0  0  0  0  0  0  0  0  0  0  0  0
    2.8680   -2.9354    0.0000 C   0  0  0  0  0  0  0  0  0  0  0  0
    9.6285    1.0818    0.0000 C   0  0  0  0  0  0  0  0  0  0  0  0
    7.9821    1.6199    0.0000 C   0  0  0  0  0  0  0  0  0  0  0  0
    3.3109   -4.3458    0.0000 C   0  0  0  0  0  0  0  0  0  0  0  0
    4.3109   -4.3419    0.0000 C   0  0  0  0  0  0  0  0  0  0  0  0
    9.9391    2.0323    0.0000 C   0  0  0  0  0  0  0  0  0  0  0  0
   10.9176    2.2385    0.0000 C   0  0  0  0  0  0  0  0  0  0  0  0
   11.2283    3.1890    0.0000 C   0  0  0  0  0  0  0  0  0  0  0  0
   10.5605    3.9334    0.0000 C   0  0  0  0  0  0  0  0  0  0  0  0
   12.2068    3.3953    0.0000 C   0  0  0  0  0  0  0  0  0  0  0  0
    8.9518    0.0213    0.0000 H   0  0  0  0  0  0  0  0  0  0  0  0
    8.0883   -2.2513    0.0000 H   0  0  0  0  0  0  0  0  0  0  0  0
    8.8767   -1.9936    0.0000 H   0  0  0  0  0  0  0  0  0  0  0  0
    6.9256    0.5953    0.0000 H   0  0  0  0  0  0  0  0  0  0  0  0
    6.1285    0.5953    0.0000 H   0  0  0  0  0  0  0  0  0  0  0  0
    9.3838   -1.2944    0.0000 H   0  0  0  0  0  0  0  0  0  0  0  0
    9.3838   -0.4649    0.0000 H   0  0  0  0  0  0  0  0  0  0  0  0
    4.7454   -3.5481    0.0000 H   0  0  0  0  0  0  0  0  0  0  0  0
    5.4490    0.2029    0.0000 H   0  0  0  0  0  0  0  0  0  0  0  0
    5.0504   -0.4873    0.0000 H   0  0  0  0  0  0  0  0  0  0  0  0
    6.5491   -3.5412    0.0000 H   0  0  0  0  0  0  0  0  0  0  0  0
    5.2478   -3.9249    0.0000 H   0  0  0  0  0  0  0  0  0  0  0  0
    6.0460   -3.9218    0.0000 H   0  0  0  0  0  0  0  0  0  0  0  0
    8.0433    0.7477    0.0000 H   0  0  0  0  0  0  0  0  0  0  0  0
    8.0131    0.6203    0.0000 H   0  0  0  0  0  0  0  0  0  0  0  0
    7.3931    1.2403    0.0000 H   0  0  0  0  0  0  0  0  0  0  0  0
    6.7731    0.6203    0.0000 H   0  0  0  0  0  0  0  0  0  0  0  0
    6.7731   -2.3797    0.0000 H   0  0  0  0  0  0  0  0  0  0  0  0
    7.3931   -2.9997    0.0000 H   0  0  0  0  0  0  0  0  0  0  0  0
    8.0131   -2.3797    0.0000 H   0  0  0  0  0  0  0  0  0  0  0  0
    4.2324   -0.8558    0.0000 H   0  0  0  0  0  0  0  0  0  0  0  0
    3.4343   -0.8404    0.0000 H   0  0  0  0  0  0  0  0  0  0  0  0
    5.3787   -0.8913    0.0000 H   0  0  0  0  0  0  0  0  0  0  0  0
    4.7635   -0.2666    0.0000 H   0  0  0  0  0  0  0  0  0  0  0  0
    4.1388   -0.8818    0.0000 H   0  0  0  0  0  0  0  0  0  0  0  0
    2.6718   -1.2651    0.0000 H   0  0  0  0  0  0  0  0  0  0  0  0
    2.2647   -1.9518    0.0000 H   0  0  0  0  0  0  0  0  0  0  0  0
    9.6490    0.4621    0.0000 H   0  0  0  0  0  0  0  0  0  0  0  0
   10.2423    0.9944    0.0000 H   0  0  0  0  0  0  0  0  0  0  0  0
    8.4436    2.0339    0.0000 H   0  0  0  0  0  0  0  0  0  0  0  0
    7.5681    2.0813    0.0000 H   0  0  0  0  0  0  0  0  0  0  0  0
    7.5207    1.2058    0.0000 H   0  0  0  0  0  0  0  0  0  0  0  0
    2.7728   -4.0379    0.0000 H   0  0  0  0  0  0  0  0  0  0  0  0
    3.0030   -4.8839    0.0000 H   0  0  0  0  0  0  0  0  0  0  0  0
    3.8490   -4.6537    0.0000 H   0  0  0  0  0  0  0  0  0  0  0  0
    3.7752   -4.6540    0.0000 H   0  0  0  0  0  0  0  0  0  0  0  0
    4.6230   -4.8777    0.0000 H   0  0  0  0  0  0  0  0  0  0  0  0
    4.8466   -4.0299    0.0000 H   0  0  0  0  0  0  0  0  0  0  0  0
    7.4220   -4.0311    0.0000 H   0  0  0  0  0  0  0  0  0  0  0  0
    9.9186    2.6520    0.0000 H   0  0  0  0  0  0  0  0  0  0  0  0
    9.3253    2.1197    0.0000 H   0  0  0  0  0  0  0  0  0  0  0  0
   11.3317    1.7771    0.0000 H   0  0  0  0  0  0  0  0  0  0  0  0
   11.0219    4.3474    0.0000 H   0  0  0  0  0  0  0  0  0  0  0  0
   10.1464    4.3948    0.0000 H   0  0  0  0  0  0  0  0  0  0  0  0
   10.0990    3.5193    0.0000 H   0  0  0  0  0  0  0  0  0  0  0  0
   12.6209    2.9338    0.0000 H   0  0  0  0  0  0  0  0  0  0  0  0
  1 15  1  0  0  0  0
  1 72  1  0  0  0  0
  2 24  2  0  0  0  0
  3 33  2  0  0  0  0
  4  5  1  0  0  0  0
  4  6  1  0  0  0  0
  4 11  1  0  0  0  0
  4 18  1  0  0  0  0
  5  7  1  0  0  0  0
  5  9  1  0  0  0  0
  5 19  1  0  0  0  0
  6 12  1  0  0  0  0
  6 17  1  0  0  0  0
  6 34  1  0  0  0  0
  7 10  2  0  0  0  0
  7 15  1  0  0  0  0
  8 10  1  0  0  0  0
  8 13  1  0  0  0  0
  8 21  1  0  0  0  0
  8 22  1  0  0  0  0
  9 12  1  0  0  0  0
  9 35  1  0  0  0  0
  9 36  1  0  0  0  0
 10 14  1  0  0  0  0
 11 14  1  0  0  0  0
 11 37  1  0  0  0  0
 11 38  1  0  0  0  0
 12 39  1  0  0  0  0
 12 40  1  0  0  0  0
 13 16  1  0  0  0  0
 13 20  1  0  0  0  0
 13 41  1  0  0  0  0
 14 42  1  0  0  0  0
 14 43  1  0  0  0  0
 15 16  1  0  0  0  0
 15 44  1  0  0  0  0
 16 45  1  0  0  0  0
 16 46  1  0  0  0  0
 17 25  1  0  0  0  0
 17 26  1  0  0  0  0
 17 47  1  0  0  0  0
 18 48  1  0  0  0  0
 18 49  1  0  0  0  0
 18 50  1  0  0  0  0
 19 51  1  0  0  0  0
 19 52  1  0  0  0  0
 19 53  1  0  0  0  0
 20 24  1  0  0  0  0
 20 27  1  0  0  0  0
 20 28  1  0  0  0  0
 21 23  1  0  0  0  0
 21 54  1  0  0  0  0
 21 55  1  0  0  0  0
 22 56  1  0  0  0  0
 22 57  1  0  0  0  0
 22 58  1  0  0  0  0
 23 24  1  0  0  0  0
 23 59  1  0  0  0  0
 23 60  1  0  0  0  0
 25 29  1  0  0  0  0
 25 61  1  0  0  0  0
 25 62  1  0  0  0  0
 26 63  1  0  0  0  0
 26 64  1  0  0  0  0
 26 65  1  0  0  0  0
 27 66  1  0  0  0  0
 27 67  1  0  0  0  0
 27 68  1  0  0  0  0
 28 69  1  0  0  0  0
 28 70  1  0  0  0  0
 28 71  1  0  0  0  0
 29 30  1  0  0  0  0
 29 73  1  0  0  0  0
 29 74  1  0  0  0  0
 30 31  2  0  0  0  0
 30 75  1  0  0  0  0
 31 32  1  0  0  0  0
 31 33  1  0  0  0  0
 32 76  1  0  0  0  0
 32 77  1  0  0  0  0
 32 78  1  0  0  0  0
 33 79  1  0  0  0  0
M  END
> <PUBCHEM_COMPOUND_CID>
14015440

> <PUBCHEM_COMPOUND_CANONICALIZED>
1

> <PUBCHEM_CACTVS_COMPLEXITY>
894

> <PUBCHEM_CACTVS_HBOND_ACCEPTOR>
3

> <PUBCHEM_CACTVS_HBOND_DONOR>
1

> <PUBCHEM_CACTVS_ROTATABLE_BOND>
5

> <PUBCHEM_CACTVS_SUBSKEYS>
AAADcfB4MAAAAAAAAAAAAAAAAAAAAYAAAAAwQIAAAAAAAEDAAAAAGgAACAAADxSggAICAAAAAgCIAqhSgAAAAAAgAAAACAEAAEgAFBIAAQAAUAAEgAAIEYOIzPDPgAAAAAAAAAAAAAQAACAAAQAACAAAAA==

> <PUBCHEM_IUPAC_OPENEYE_NAME>
(E)-6-(7-hydroxy-4,4,10,13,14-pentamethyl-3-oxo-1,2,5,6,7,11,12,15,16,17-decahydrocyclopenta[a]phenanthren-17-yl)-2-methyl-hept-2-enal

> <PUBCHEM_IUPAC_CAS_NAME>
(E)-6-(7-hydroxy-4,4,10,13,14-pentamethyl-3-oxo-1,2,5,6,7,11,12,15,16,17-decahydrocyclopenta[a]phenanthren-17-yl)-2-methyl-2-heptenal

> <PUBCHEM_IUPAC_NAME_MARKUP>
(<I>E</I>)-6-(7-hydroxy-4,4,10,13,14-pentamethyl-3-oxo-1,2,5,6,7,11,12,15,16,17-decahydrocyclopenta[a]phenanthren-17-yl)-2-methylhept-2-enal

> <PUBCHEM_IUPAC_NAME>
(E)-6-(7-hydroxy-4,4,10,13,14-pentamethyl-3-oxo-1,2,5,6,7,11,12,15,16,17-decahydrocyclopenta[a]phenanthren-17-yl)-2-methylhept-2-enal

> <PUBCHEM_IUPAC_SYSTEMATIC_NAME>
(E)-2-methyl-6-(4,4,10,13,14-pentamethyl-7-oxidanyl-3-oxidanylidene-1,2,5,6,7,11,12,15,16,17-decahydrocyclopenta[a]phenanthren-17-yl)hept-2-enal

> <PUBCHEM_IUPAC_TRADITIONAL_NAME>
(E)-6-(7-hydroxy-3-keto-4,4,10,13,14-pentamethyl-1,2,5,6,7,11,12,15,16,17-decahydrocyclopenta[a]phenanthren-17-yl)-2-methyl-hept-2-enal

> <PUBCHEM_IUPAC_INCHI>
InChI=1S/C30H46O3/c1-19(18-31)9-8-10-20(2)21-11-16-30(7)26-22(12-15-29(21,30)6)28(5)14-13-25(33)27(3,4)24(28)17-23(26)32/h9,18,20-21,23-24,32H,8,10-17H2,1-7H3/b19-9+

> <PUBCHEM_IUPAC_INCHIKEY>
ALBRPHJUQRKZLQ-DJKKODMXSA-N

> <PUBCHEM_XLOGP3_AA>
5.9

> <PUBCHEM_EXACT_MASS>
454.344695

> <PUBCHEM_MOLECULAR_FORMULA>
C30H46O3

> <PUBCHEM_MOLECULAR_WEIGHT>
454.7

> <PUBCHEM_OPENEYE_CAN_SMILES>
CC(CCC=C(C)C=O)C1CCC2(C1(CCC3=C2C(CC4C3(CCC(=O)C4(C)C)C)O)C)C

> <PUBCHEM_OPENEYE_ISO_SMILES>
CC(CC/C=C(\C)/C=O)C1CCC2(C1(CCC3=C2C(CC4C3(CCC(=O)C4(C)C)C)O)C)C

> <PUBCHEM_CACTVS_TPSA>
54.4

> <PUBCHEM_MONOISOTOPIC_WEIGHT>
454.344695

> <PUBCHEM_TOTAL_CHARGE>
0

> <PUBCHEM_HEAVY_ATOM_COUNT>
33

> <PUBCHEM_ATOM_DEF_STEREO_COUNT>
0

> <PUBCHEM_ATOM_UDEF_STEREO_COUNT>
7

> <PUBCHEM_BOND_DEF_STEREO_COUNT>
1

> <PUBCHEM_BOND_UDEF_STEREO_COUNT>
0

> <PUBCHEM_ISOTOPIC_ATOM_COUNT>
0

> <PUBCHEM_COMPONENT_COUNT>
1

> <PUBCHEM_CACTVS_TAUTO_COUNT>
-1

> <PUBCHEM_COORDINATE_TYPE>
1
5
255

> <PUBCHEM_BONDANNOTATIONS>
15  1  3
13  16  3
17  26  3
4  18  3
5  19  3
6  12  3
8  22  3

$$$$
