78384957
  -OEChem-09122006142D

 77 82  0     1  0  0  0  0  0999 V2000
    2.5793   -2.1501    0.0000 O   0  0  0  0  0  0  0  0  0  0  0  0
    3.5245    2.2533    0.0000 O   0  0  0  0  0  0  0  0  0  0  0  0
    5.7152   -1.4629    0.0000 O   0  0  0  0  0  0  0  0  0  0  0  0
    7.0049   -0.7813    0.0000 O   0  0  0  0  0  0  0  0  0  0  0  0
    5.2565    3.2533    0.0000 O   0  0  0  0  0  0  0  0  0  0  0  0
    2.4846   -3.9296    0.0000 O   0  0  0  0  0  0  0  0  0  0  0  0
    9.7304    3.8976    0.0000 O   0  0  0  0  0  0  0  0  0  0  0  0
    4.3905    0.7533    0.0000 C   0  0  3  0  0  0  0  0  0  0  0  0
    3.6535    0.0862    0.0000 C   0  0  3  0  0  0  0  0  0  0  0  0
    4.0586   -0.8216    0.0000 C   0  0  3  0  0  0  0  0  0  0  0  0
    5.2565    0.2533    0.0000 C   0  0  3  0  0  0  0  0  0  0  0  0
    3.3231   -1.4816    0.0000 C   0  0  3  0  0  0  0  0  0  0  0  0
    2.6711   -0.0205    0.0000 C   0  0  3  0  0  0  0  0  0  0  0  0
    5.0473   -0.7186    0.0000 C   0  0  0  0  0  0  0  0  0  0  0  0
    2.4673   -0.9875    0.0000 C   0  0  0  0  0  0  0  0  0  0  0  0
    4.3905    1.7533    0.0000 C   0  0  3  0  0  0  0  0  0  0  0  0
    6.1225    0.7533    0.0000 C   0  0  0  0  0  0  0  0  0  0  0  0
    6.1225    1.7533    0.0000 C   0  0  0  0  0  0  0  0  0  0  0  0
    7.0165    2.2879    0.0000 C   0  0  3  0  0  0  0  0  0  0  0  0
    3.5245    1.2533    0.0000 C   0  0  0  0  0  0  0  0  0  0  0  0
    4.1887   -1.9823    0.0000 C   0  0  0  0  0  0  0  0  0  0  0  0
    6.1225   -0.2467    0.0000 C   0  0  0  0  0  0  0  0  0  0  0  0
    7.9226    1.7741    0.0000 C   0  0  3  0  0  0  0  0  0  0  0  0
    7.0165    0.2186    0.0000 C   0  0  3  0  0  0  0  0  0  0  0  0
    5.2565    2.2533    0.0000 C   0  0  0  0  0  0  0  0  0  0  0  0
    2.0000    0.7209    0.0000 C   0  0  0  0  0  0  0  0  0  0  0  0
    7.9226    0.7324    0.0000 C   0  0  0  0  0  0  0  0  0  0  0  0
    3.9799   -2.9603    0.0000 C   0  0  3  0  0  0  0  0  0  0  0  0
    8.8663    2.3093    0.0000 C   0  0  0  0  0  0  0  0  0  0  0  0
    6.9914    3.3726    0.0000 C   0  0  0  0  0  0  0  0  0  0  0  0
    2.9853   -3.0640    0.0000 C   0  0  0  0  0  0  0  0  0  0  0  0
    6.1466    2.7812    0.0000 C   0  0  0  0  0  0  0  0  0  0  0  0
    7.9226    3.9296    0.0000 C   0  0  0  0  0  0  0  0  0  0  0  0
    8.8663    3.3943    0.0000 C   0  0  0  0  0  0  0  0  0  0  0  0
    4.6484   -3.7040    0.0000 C   0  0  0  0  0  0  0  0  0  0  0  0
    9.8663    2.3055    0.0000 C   0  0  0  0  0  0  0  0  0  0  0  0
    9.3630    1.4414    0.0000 C   0  0  0  0  0  0  0  0  0  0  0  0
    3.3996    0.6518    0.0000 H   0  0  0  0  0  0  0  0  0  0  0  0
    4.3100   -1.3883    0.0000 H   0  0  0  0  0  0  0  0  0  0  0  0
    2.0725   -0.1823    0.0000 H   0  0  0  0  0  0  0  0  0  0  0  0
    1.8774   -0.7966    0.0000 H   0  0  0  0  0  0  0  0  0  0  0  0
    2.2154   -1.5540    0.0000 H   0  0  0  0  0  0  0  0  0  0  0  0
    4.3905    2.3733    0.0000 H   0  0  0  0  0  0  0  0  0  0  0  0
    3.8345    1.7902    0.0000 H   0  0  0  0  0  0  0  0  0  0  0  0
    2.9875    1.5633    0.0000 H   0  0  0  0  0  0  0  0  0  0  0  0
    3.2145    0.7163    0.0000 H   0  0  0  0  0  0  0  0  0  0  0  0
    4.7782   -2.1744    0.0000 H   0  0  0  0  0  0  0  0  0  0  0  0
    4.4413   -1.4161    0.0000 H   0  0  0  0  0  0  0  0  0  0  0  0
    5.8125   -0.7837    0.0000 H   0  0  0  0  0  0  0  0  0  0  0  0
    6.6595   -0.5567    0.0000 H   0  0  0  0  0  0  0  0  0  0  0  0
    6.4325    0.2902    0.0000 H   0  0  0  0  0  0  0  0  0  0  0  0
    8.4583    1.4620    0.0000 H   0  0  0  0  0  0  0  0  0  0  0  0
    7.5504   -0.0966    0.0000 H   0  0  0  0  0  0  0  0  0  0  0  0
    2.4597    1.1369    0.0000 H   0  0  0  0  0  0  0  0  0  0  0  0
    1.5839    1.1806    0.0000 H   0  0  0  0  0  0  0  0  0  0  0  0
    1.5403    0.3048    0.0000 H   0  0  0  0  0  0  0  0  0  0  0  0
    8.1316    0.1488    0.0000 H   0  0  0  0  0  0  0  0  0  0  0  0
    8.5334    0.8385    0.0000 H   0  0  0  0  0  0  0  0  0  0  0  0
    3.7572   -3.5389    0.0000 H   0  0  0  0  0  0  0  0  0  0  0  0
    6.7689    3.9513    0.0000 H   0  0  0  0  0  0  0  0  0  0  0  0
    6.3832    3.2524    0.0000 H   0  0  0  0  0  0  0  0  0  0  0  0
    6.4525    3.3205    0.0000 H   0  0  0  0  0  0  0  0  0  0  0  0
    5.6073    3.0871    0.0000 H   0  0  0  0  0  0  0  0  0  0  0  0
    5.8408    2.2419    0.0000 H   0  0  0  0  0  0  0  0  0  0  0  0
    3.5245    2.8733    0.0000 H   0  0  0  0  0  0  0  0  0  0  0  0
    8.3162    4.4086    0.0000 H   0  0  0  0  0  0  0  0  0  0  0  0
    7.5180    4.3993    0.0000 H   0  0  0  0  0  0  0  0  0  0  0  0
    4.1873   -4.1185    0.0000 H   0  0  0  0  0  0  0  0  0  0  0  0
    5.0629   -4.1651    0.0000 H   0  0  0  0  0  0  0  0  0  0  0  0
    5.1095   -3.2896    0.0000 H   0  0  0  0  0  0  0  0  0  0  0  0
    9.8639    1.6855    0.0000 H   0  0  0  0  0  0  0  0  0  0  0  0
   10.4863    2.3031    0.0000 H   0  0  0  0  0  0  0  0  0  0  0  0
    9.8687    2.9254    0.0000 H   0  0  0  0  0  0  0  0  0  0  0  0
    8.8249    1.1334    0.0000 H   0  0  0  0  0  0  0  0  0  0  0  0
    9.6709    0.9032    0.0000 H   0  0  0  0  0  0  0  0  0  0  0  0
    9.9011    1.7493    0.0000 H   0  0  0  0  0  0  0  0  0  0  0  0
    7.5382   -1.0975    0.0000 H   0  0  0  0  0  0  0  0  0  0  0  0
  1 12  1  0  0  0  0
  1 31  1  0  0  0  0
  2 16  1  0  0  0  0
  2 65  1  0  0  0  0
  3 14  2  0  0  0  0
  4 24  1  0  0  0  0
  4 77  1  0  0  0  0
  5 25  2  0  0  0  0
  6 31  2  0  0  0  0
  7 34  2  0  0  0  0
  8  9  1  0  0  0  0
  8 11  1  0  0  0  0
  8 16  1  0  0  0  0
  8 20  1  0  0  0  0
  9 10  1  0  0  0  0
  9 13  1  0  0  0  0
  9 38  1  0  0  0  0
 10 12  1  0  0  0  0
 10 14  1  0  0  0  0
 10 39  1  0  0  0  0
 11 14  1  0  0  0  0
 11 17  1  0  0  0  0
 11 22  1  0  0  0  0
 12 15  1  0  0  0  0
 12 21  1  0  0  0  0
 13 15  1  0  0  0  0
 13 26  1  0  0  0  0
 13 40  1  0  0  0  0
 15 41  1  0  0  0  0
 15 42  1  0  0  0  0
 16 25  1  0  0  0  0
 16 43  1  0  0  0  0
 17 18  2  0  0  0  0
 17 24  1  0  0  0  0
 18 19  1  0  0  0  0
 18 25  1  0  0  0  0
 19 23  1  0  0  0  0
 19 30  1  0  0  0  0
 19 32  1  0  0  0  0
 20 44  1  0  0  0  0
 20 45  1  0  0  0  0
 20 46  1  0  0  0  0
 21 28  1  0  0  0  0
 21 47  1  0  0  0  0
 21 48  1  0  0  0  0
 22 49  1  0  0  0  0
 22 50  1  0  0  0  0
 22 51  1  0  0  0  0
 23 27  1  0  0  0  0
 23 29  1  0  0  0  0
 23 52  1  0  0  0  0
 24 27  1  0  0  0  0
 24 53  1  0  0  0  0
 26 54  1  0  0  0  0
 26 55  1  0  0  0  0
 26 56  1  0  0  0  0
 27 57  1  0  0  0  0
 27 58  1  0  0  0  0
 28 31  1  0  0  0  0
 28 35  1  0  0  0  0
 28 59  1  0  0  0  0
 29 34  1  0  0  0  0
 29 36  1  0  0  0  0
 29 37  1  0  0  0  0
 30 33  1  0  0  0  0
 30 60  1  0  0  0  0
 30 61  1  0  0  0  0
 32 62  1  0  0  0  0
 32 63  1  0  0  0  0
 32 64  1  0  0  0  0
 33 34  1  0  0  0  0
 33 66  1  0  0  0  0
 33 67  1  0  0  0  0
 35 68  1  0  0  0  0
 35 69  1  0  0  0  0
 35 70  1  0  0  0  0
 36 71  1  0  0  0  0
 36 72  1  0  0  0  0
 36 73  1  0  0  0  0
 37 74  1  0  0  0  0
 37 75  1  0  0  0  0
 37 76  1  0  0  0  0
M  END
> <PUBCHEM_COMPOUND_CID>
78384957

> <PUBCHEM_COMPOUND_CANONICALIZED>
1

> <PUBCHEM_CACTVS_COMPLEXITY>
1200

> <PUBCHEM_CACTVS_HBOND_ACCEPTOR>
7

> <PUBCHEM_CACTVS_HBOND_DONOR>
2

> <PUBCHEM_CACTVS_ROTATABLE_BOND>
0

> <PUBCHEM_CACTVS_SUBSKEYS>
AAADcfB4OAAAAAAAAAAAAAAAAAAAAaMEAAAwQIAAAAAYAEDAAAAAGgAACAAAD1SggAICCAAABgCIAoDQCAIAAAAgAAAACAFAAEgAFBYAAAACUAAE4AAIEQOK7vzvgAAAAAAAAAAAAAQAACAAAYAADAAAAA==

> <PUBCHEM_IUPAC_OPENEYE_NAME>
10,20-dihydroxy-2,3',7,9,13,17,17-heptamethyl-spiro[pentacyclo[10.8.0.02,9.04,8.013,18]icos-1(12)-ene-5,5'-tetrahydrofuran]-2',3,11,16-tetrone

> <PUBCHEM_IUPAC_CAS_NAME>
10',20'-dihydroxy-2',3,7',9',13',17',17'-heptamethylspiro[oxolane-5,5'-pentacyclo[10.8.0.02,9.04,8.013,18]eicos-1(12)-ene]-2,3',11',16'-tetrone

> <PUBCHEM_IUPAC_NAME_MARKUP>
10&apos;,20&apos;-dihydroxy-2&apos;,3,7&apos;,9&apos;,13&apos;,17&apos;,17&apos;-heptamethylspiro[oxolane-5,5&apos;-pentacyclo[10.8.0.0<SUP>2,9</SUP>.0<SUP>4,8</SUP>.0<SUP>13,18</SUP>]icos-1(12)-ene]-2,3&apos;,11&apos;,16&apos;-tetrone

> <PUBCHEM_IUPAC_NAME>
10',20'-dihydroxy-2',3,7',9',13',17',17'-heptamethylspiro[oxolane-5,5'-pentacyclo[10.8.0.02,9.04,8.013,18]icos-1(12)-ene]-2,3',11',16'-tetrone

> <PUBCHEM_IUPAC_SYSTEMATIC_NAME>
2',3,7',9',13',17',17'-heptamethyl-10',20'-bis(oxidanyl)spiro[oxolane-5,5'-pentacyclo[10.8.0.02,9.04,8.013,18]icos-1(12)-ene]-2,3',11',16'-tetrone

> <PUBCHEM_IUPAC_TRADITIONAL_NAME>
10,20-dihydroxy-2,3',7,9,13,17,17-heptamethyl-spiro[pentacyclo[10.8.0.02,9.04,8.013,18]eicos-1(12)-ene-5,5'-tetrahydrofuran]-2',3,11,16-diquinone

> <PUBCHEM_IUPAC_INCHI>
InChI=1S/C30H40O7/c1-13-11-30(12-14(2)25(36)37-30)21-18(13)28(6)24(35)22(33)20-19(29(28,7)23(21)34)15(31)10-16-26(3,4)17(32)8-9-27(16,20)5/h13-16,18,21,24,31,35H,8-12H2,1-7H3

> <PUBCHEM_IUPAC_INCHIKEY>
BINIQAMAYCKIRZ-UHFFFAOYSA-N

> <PUBCHEM_XLOGP3_AA>
2.3

> <PUBCHEM_EXACT_MASS>
512.277404

> <PUBCHEM_MOLECULAR_FORMULA>
C30H40O7

> <PUBCHEM_MOLECULAR_WEIGHT>
512.6

> <PUBCHEM_OPENEYE_CAN_SMILES>
CC1CC2(CC(C(=O)O2)C)C3C1C4(C(C(=O)C5=C(C4(C3=O)C)C(CC6C5(CCC(=O)C6(C)C)C)O)O)C

> <PUBCHEM_OPENEYE_ISO_SMILES>
CC1CC2(CC(C(=O)O2)C)C3C1C4(C(C(=O)C5=C(C4(C3=O)C)C(CC6C5(CCC(=O)C6(C)C)C)O)O)C

> <PUBCHEM_CACTVS_TPSA>
118

> <PUBCHEM_MONOISOTOPIC_WEIGHT>
512.277404

> <PUBCHEM_TOTAL_CHARGE>
0

> <PUBCHEM_HEAVY_ATOM_COUNT>
37

> <PUBCHEM_ATOM_DEF_STEREO_COUNT>
0

> <PUBCHEM_ATOM_UDEF_STEREO_COUNT>
11

> <PUBCHEM_BOND_DEF_STEREO_COUNT>
0

> <PUBCHEM_BOND_UDEF_STEREO_COUNT>
0

> <PUBCHEM_ISOTOPIC_ATOM_COUNT>
0

> <PUBCHEM_COMPONENT_COUNT>
1

> <PUBCHEM_CACTVS_TAUTO_COUNT>
-1

> <PUBCHEM_COORDINATE_TYPE>
1
5
255

> <PUBCHEM_BONDANNOTATIONS>
10  14  3
11  22  3
12  15  3
13  26  3
19  32  3
16  2  3
23  27  3
28  35  3
24  4  3
8  20  3
9  13  3

$$$$
