13784332
  -OEChem-09122006242D

 85 88  0     1  0  0  0  0  0999 V2000
    2.5357   -3.7267    0.0000 O   0  0  0  0  0  0  0  0  0  0  0  0
    7.9506   -3.7058    0.0000 O   0  0  0  0  0  0  0  0  0  0  0  0
   12.1212    1.1996    0.0000 O   0  0  0  0  0  0  0  0  0  0  0  0
   12.7146    2.5837    0.0000 O   0  0  0  0  0  0  0  0  0  0  0  0
   13.0532    4.0511    0.0000 O   0  0  0  0  0  0  0  0  0  0  0  0
    7.9288   -0.6743    0.0000 C   0  0  3  0  0  0  0  0  0  0  0  0
    7.9288   -1.6743    0.0000 C   0  0  3  0  0  0  0  0  0  0  0  0
    8.8750   -0.3696    0.0000 C   0  0  3  0  0  0  0  0  0  0  0  0
    5.2868   -2.1812    0.0000 C   0  0  3  0  0  0  0  0  0  0  0  0
    7.0628   -2.1743    0.0000 C   0  0  0  0  0  0  0  0  0  0  0  0
    8.8750   -1.9791    0.0000 C   0  0  0  0  0  0  0  0  0  0  0  0
    7.0628   -0.1743    0.0000 C   0  0  0  0  0  0  0  0  0  0  0  0
    6.1968   -1.6743    0.0000 C   0  0  0  0  0  0  0  0  0  0  0  0
    5.2787   -3.2228    0.0000 C   0  0  3  0  0  0  0  0  0  0  0  0
    9.4586   -1.1743    0.0000 C   0  0  0  0  0  0  0  0  0  0  0  0
    6.1968   -0.6743    0.0000 C   0  0  0  0  0  0  0  0  0  0  0  0
    4.3433   -3.7725    0.0000 C   0  0  0  0  0  0  0  0  0  0  0  0
    9.1857    0.5809    0.0000 C   0  0  3  0  0  0  0  0  0  0  0  0
    7.9288    0.3257    0.0000 C   0  0  0  0  0  0  0  0  0  0  0  0
    4.3599   -1.6171    0.0000 C   0  0  0  0  0  0  0  0  0  0  0  0
    7.9288   -2.6743    0.0000 C   0  0  0  0  0  0  0  0  0  0  0  0
    6.1808   -3.7436    0.0000 C   0  0  0  0  0  0  0  0  0  0  0  0
    7.0789   -3.2158    0.0000 C   0  0  0  0  0  0  0  0  0  0  0  0
    3.4037   -3.2300    0.0000 C   0  0  3  0  0  0  0  0  0  0  0  0
    3.4120   -2.1450    0.0000 C   0  0  0  0  0  0  0  0  0  0  0  0
    5.2945   -1.1812    0.0000 C   0  0  0  0  0  0  0  0  0  0  0  0
   10.1642    0.7871    0.0000 C   0  0  0  0  0  0  0  0  0  0  0  0
    3.8467   -4.6405    0.0000 C   0  0  0  0  0  0  0  0  0  0  0  0
    4.8466   -4.6366    0.0000 C   0  0  0  0  0  0  0  0  0  0  0  0
    8.5179    1.3252    0.0000 C   0  0  0  0  0  0  0  0  0  0  0  0
   10.4749    1.7376    0.0000 C   0  0  0  0  0  0  0  0  0  0  0  0
   11.4534    1.9439    0.0000 C   0  0  3  0  0  0  0  0  0  0  0  0
   11.7640    2.8944    0.0000 C   0  0  3  0  0  0  0  0  0  0  0  0
   12.0747    3.8449    0.0000 C   0  0  0  0  0  0  0  0  0  0  0  0
   10.8135    3.2051    0.0000 C   0  0  0  0  0  0  0  0  0  0  0  0
    9.4875   -0.2734    0.0000 H   0  0  0  0  0  0  0  0  0  0  0  0
    8.6240   -2.5460    0.0000 H   0  0  0  0  0  0  0  0  0  0  0  0
    9.4124   -2.2883    0.0000 H   0  0  0  0  0  0  0  0  0  0  0  0
    7.4613    0.3006    0.0000 H   0  0  0  0  0  0  0  0  0  0  0  0
    6.6643    0.3006    0.0000 H   0  0  0  0  0  0  0  0  0  0  0  0
    5.2811   -3.8428    0.0000 H   0  0  0  0  0  0  0  0  0  0  0  0
    9.9195   -1.5891    0.0000 H   0  0  0  0  0  0  0  0  0  0  0  0
    9.9195   -0.7596    0.0000 H   0  0  0  0  0  0  0  0  0  0  0  0
    5.9847   -0.0917    0.0000 H   0  0  0  0  0  0  0  0  0  0  0  0
    5.5862   -0.7820    0.0000 H   0  0  0  0  0  0  0  0  0  0  0  0
    9.3783    1.1702    0.0000 H   0  0  0  0  0  0  0  0  0  0  0  0
    8.5488    0.3257    0.0000 H   0  0  0  0  0  0  0  0  0  0  0  0
    7.9288    0.9457    0.0000 H   0  0  0  0  0  0  0  0  0  0  0  0
    7.3088    0.3257    0.0000 H   0  0  0  0  0  0  0  0  0  0  0  0
    4.7681   -1.1504    0.0000 H   0  0  0  0  0  0  0  0  0  0  0  0
    3.9700   -1.1351    0.0000 H   0  0  0  0  0  0  0  0  0  0  0  0
    7.3088   -2.6743    0.0000 H   0  0  0  0  0  0  0  0  0  0  0  0
    7.9288   -3.2943    0.0000 H   0  0  0  0  0  0  0  0  0  0  0  0
    8.5488   -2.6743    0.0000 H   0  0  0  0  0  0  0  0  0  0  0  0
    5.7835   -4.2196    0.0000 H   0  0  0  0  0  0  0  0  0  0  0  0
    6.5818   -4.2165    0.0000 H   0  0  0  0  0  0  0  0  0  0  0  0
    3.4025   -3.8500    0.0000 H   0  0  0  0  0  0  0  0  0  0  0  0
    3.2075   -1.5598    0.0000 H   0  0  0  0  0  0  0  0  0  0  0  0
    2.8004   -2.2464    0.0000 H   0  0  0  0  0  0  0  0  0  0  0  0
    5.9145   -1.1860    0.0000 H   0  0  0  0  0  0  0  0  0  0  0  0
    5.2993   -0.5612    0.0000 H   0  0  0  0  0  0  0  0  0  0  0  0
    4.6745   -1.1764    0.0000 H   0  0  0  0  0  0  0  0  0  0  0  0
   10.1848    0.1675    0.0000 H   0  0  0  0  0  0  0  0  0  0  0  0
   10.7780    0.6998    0.0000 H   0  0  0  0  0  0  0  0  0  0  0  0
    3.3085   -4.3325    0.0000 H   0  0  0  0  0  0  0  0  0  0  0  0
    3.5387   -5.1786    0.0000 H   0  0  0  0  0  0  0  0  0  0  0  0
    4.3848   -4.9484    0.0000 H   0  0  0  0  0  0  0  0  0  0  0  0
    4.3109   -4.9487    0.0000 H   0  0  0  0  0  0  0  0  0  0  0  0
    5.1587   -5.1723    0.0000 H   0  0  0  0  0  0  0  0  0  0  0  0
    5.3824   -4.3245    0.0000 H   0  0  0  0  0  0  0  0  0  0  0  0
    8.9793    1.7393    0.0000 H   0  0  0  0  0  0  0  0  0  0  0  0
    8.1038    1.7867    0.0000 H   0  0  0  0  0  0  0  0  0  0  0  0
    8.0564    0.9112    0.0000 H   0  0  0  0  0  0  0  0  0  0  0  0
   10.4543    2.3573    0.0000 H   0  0  0  0  0  0  0  0  0  0  0  0
    9.8611    1.8250    0.0000 H   0  0  0  0  0  0  0  0  0  0  0  0
    2.0000   -3.4146    0.0000 H   0  0  0  0  0  0  0  0  0  0  0  0
   12.0601    2.0717    0.0000 H   0  0  0  0  0  0  0  0  0  0  0  0
   12.7279    1.3274    0.0000 H   0  0  0  0  0  0  0  0  0  0  0  0
   12.0541    4.4646    0.0000 H   0  0  0  0  0  0  0  0  0  0  0  0
   11.4609    3.9323    0.0000 H   0  0  0  0  0  0  0  0  0  0  0  0
   11.0061    3.7944    0.0000 H   0  0  0  0  0  0  0  0  0  0  0  0
   10.2242    3.3977    0.0000 H   0  0  0  0  0  0  0  0  0  0  0  0
   10.6209    2.6157    0.0000 H   0  0  0  0  0  0  0  0  0  0  0  0
   13.1760    2.9978    0.0000 H   0  0  0  0  0  0  0  0  0  0  0  0
   13.2458    4.6405    0.0000 H   0  0  0  0  0  0  0  0  0  0  0  0
  1 24  1  0  0  0  0
  1 76  1  0  0  0  0
  2 23  2  0  0  0  0
  3 32  1  0  0  0  0
  3 78  1  0  0  0  0
  4 33  1  0  0  0  0
  4 84  1  0  0  0  0
  5 34  1  0  0  0  0
  5 85  1  0  0  0  0
  6  7  1  0  0  0  0
  6  8  1  0  0  0  0
  6 12  1  0  0  0  0
  6 19  1  0  0  0  0
  7 10  1  0  0  0  0
  7 11  1  0  0  0  0
  7 21  1  0  0  0  0
  8 15  1  0  0  0  0
  8 18  1  0  0  0  0
  8 36  1  0  0  0  0
  9 13  1  0  0  0  0
  9 14  1  0  0  0  0
  9 20  1  0  0  0  0
  9 26  1  0  0  0  0
 10 13  2  0  0  0  0
 10 23  1  0  0  0  0
 11 15  1  0  0  0  0
 11 37  1  0  0  0  0
 11 38  1  0  0  0  0
 12 16  1  0  0  0  0
 12 39  1  0  0  0  0
 12 40  1  0  0  0  0
 13 16  1  0  0  0  0
 14 17  1  0  0  0  0
 14 22  1  0  0  0  0
 14 41  1  0  0  0  0
 15 42  1  0  0  0  0
 15 43  1  0  0  0  0
 16 44  1  0  0  0  0
 16 45  1  0  0  0  0
 17 24  1  0  0  0  0
 17 28  1  0  0  0  0
 17 29  1  0  0  0  0
 18 27  1  0  0  0  0
 18 30  1  0  0  0  0
 18 46  1  0  0  0  0
 19 47  1  0  0  0  0
 19 48  1  0  0  0  0
 19 49  1  0  0  0  0
 20 25  1  0  0  0  0
 20 50  1  0  0  0  0
 20 51  1  0  0  0  0
 21 52  1  0  0  0  0
 21 53  1  0  0  0  0
 21 54  1  0  0  0  0
 22 23  1  0  0  0  0
 22 55  1  0  0  0  0
 22 56  1  0  0  0  0
 24 25  1  0  0  0  0
 24 57  1  0  0  0  0
 25 58  1  0  0  0  0
 25 59  1  0  0  0  0
 26 60  1  0  0  0  0
 26 61  1  0  0  0  0
 26 62  1  0  0  0  0
 27 31  1  0  0  0  0
 27 63  1  0  0  0  0
 27 64  1  0  0  0  0
 28 65  1  0  0  0  0
 28 66  1  0  0  0  0
 28 67  1  0  0  0  0
 29 68  1  0  0  0  0
 29 69  1  0  0  0  0
 29 70  1  0  0  0  0
 30 71  1  0  0  0  0
 30 72  1  0  0  0  0
 30 73  1  0  0  0  0
 31 32  1  0  0  0  0
 31 74  1  0  0  0  0
 31 75  1  0  0  0  0
 32 33  1  0  0  0  0
 32 77  1  0  0  0  0
 33 34  1  0  0  0  0
 33 35  1  0  0  0  0
 34 79  1  0  0  0  0
 34 80  1  0  0  0  0
 35 81  1  0  0  0  0
 35 82  1  0  0  0  0
 35 83  1  0  0  0  0
M  END
> <PUBCHEM_COMPOUND_CID>
13784332

> <PUBCHEM_COMPOUND_CANONICALIZED>
1

> <PUBCHEM_CACTVS_COMPLEXITY>
893

> <PUBCHEM_CACTVS_HBOND_ACCEPTOR>
5

> <PUBCHEM_CACTVS_HBOND_DONOR>
4

> <PUBCHEM_CACTVS_ROTATABLE_BOND>
6

> <PUBCHEM_CACTVS_SUBSKEYS>
AAADcfB4OAAAAAAAAAAAAAAAAAAAAYAAAAAwQIAAAAAAAEDAAAAAGgAACAAAD1SggAICAAAAAgCIAoBQAAAAAAAgAAAACAEAAEgBEBIAAAAAQAAFgAAJAQOIzPDPgAAAAAAAAABAAAYAADAAAQAACAAAAA==

> <PUBCHEM_IUPAC_OPENEYE_NAME>
3-hydroxy-4,4,10,13,14-pentamethyl-17-(4,5,6-trihydroxy-1,5-dimethyl-hexyl)-1,2,3,5,6,11,12,15,16,17-decahydrocyclopenta[a]phenanthren-7-one

> <PUBCHEM_IUPAC_CAS_NAME>
3-hydroxy-4,4,10,13,14-pentamethyl-17-(5,6,7-trihydroxy-6-methylheptan-2-yl)-1,2,3,5,6,11,12,15,16,17-decahydrocyclopenta[a]phenanthren-7-one

> <PUBCHEM_IUPAC_NAME_MARKUP>
3-hydroxy-4,4,10,13,14-pentamethyl-17-(5,6,7-trihydroxy-6-methylheptan-2-yl)-1,2,3,5,6,11,12,15,16,17-decahydrocyclopenta[a]phenanthren-7-one

> <PUBCHEM_IUPAC_NAME>
3-hydroxy-4,4,10,13,14-pentamethyl-17-(5,6,7-trihydroxy-6-methylheptan-2-yl)-1,2,3,5,6,11,12,15,16,17-decahydrocyclopenta[a]phenanthren-7-one

> <PUBCHEM_IUPAC_SYSTEMATIC_NAME>
4,4,10,13,14-pentamethyl-17-[6-methyl-5,6,7-tris(oxidanyl)heptan-2-yl]-3-oxidanyl-1,2,3,5,6,11,12,15,16,17-decahydrocyclopenta[a]phenanthren-7-one

> <PUBCHEM_IUPAC_TRADITIONAL_NAME>
3-hydroxy-4,4,10,13,14-pentamethyl-17-(4,5,6-trihydroxy-1,5-dimethyl-hexyl)-1,2,3,5,6,11,12,15,16,17-decahydrocyclopenta[a]phenanthren-7-one

> <PUBCHEM_IUPAC_INCHI>
InChI=1S/C30H50O5/c1-18(8-9-24(34)30(7,35)17-31)19-10-15-29(6)25-20(11-14-28(19,29)5)27(4)13-12-23(33)26(2,3)22(27)16-21(25)32/h18-19,22-24,31,33-35H,8-17H2,1-7H3

> <PUBCHEM_IUPAC_INCHIKEY>
TVLLLIMEZXBDHC-UHFFFAOYSA-N

> <PUBCHEM_XLOGP3_AA>
4.5

> <PUBCHEM_EXACT_MASS>
490.365825

> <PUBCHEM_MOLECULAR_FORMULA>
C30H50O5

> <PUBCHEM_MOLECULAR_WEIGHT>
490.7

> <PUBCHEM_OPENEYE_CAN_SMILES>
CC(CCC(C(C)(CO)O)O)C1CCC2(C1(CCC3=C2C(=O)CC4C3(CCC(C4(C)C)O)C)C)C

> <PUBCHEM_OPENEYE_ISO_SMILES>
CC(CCC(C(C)(CO)O)O)C1CCC2(C1(CCC3=C2C(=O)CC4C3(CCC(C4(C)C)O)C)C)C

> <PUBCHEM_CACTVS_TPSA>
98

> <PUBCHEM_MONOISOTOPIC_WEIGHT>
490.365825

> <PUBCHEM_TOTAL_CHARGE>
0

> <PUBCHEM_HEAVY_ATOM_COUNT>
35

> <PUBCHEM_ATOM_DEF_STEREO_COUNT>
0

> <PUBCHEM_ATOM_UDEF_STEREO_COUNT>
9

> <PUBCHEM_BOND_DEF_STEREO_COUNT>
0

> <PUBCHEM_BOND_UDEF_STEREO_COUNT>
0

> <PUBCHEM_ISOTOPIC_ATOM_COUNT>
0

> <PUBCHEM_COMPONENT_COUNT>
1

> <PUBCHEM_CACTVS_TAUTO_COUNT>
-1

> <PUBCHEM_COORDINATE_TYPE>
1
5
255

> <PUBCHEM_BONDANNOTATIONS>
24  1  3
14  22  3
18  30  3
32  3  3
33  4  3
6  19  3
7  21  3
8  15  3
9  26  3

$$$$
