14109415
  -OEChem-09122006082D

 65 68  0     1  0  0  0  0  0999 V2000
    9.1857   -1.2720    0.0000 O   0  0  0  0  0  0  0  0  0  0  0  0
    7.9506   -2.0482    0.0000 O   0  0  0  0  0  0  0  0  0  0  0  0
    2.5357   -2.0690    0.0000 O   0  0  0  0  0  0  0  0  0  0  0  0
    5.3307    1.4833    0.0000 O   0  0  0  0  0  0  0  0  0  0  0  0
    8.5179    2.9828    0.0000 O   0  0  0  0  0  0  0  0  0  0  0  0
    7.9288   -0.0167    0.0000 C   0  0  3  0  0  0  0  0  0  0  0  0
    7.9288    0.9833    0.0000 C   0  0  3  0  0  0  0  0  0  0  0  0
    5.2868   -0.5236    0.0000 C   0  0  3  0  0  0  0  0  0  0  0  0
    5.2787   -1.5652    0.0000 C   0  0  3  0  0  0  0  0  0  0  0  0
    7.0628   -0.5167    0.0000 C   0  0  0  0  0  0  0  0  0  0  0  0
    6.1968   -0.0167    0.0000 C   0  0  0  0  0  0  0  0  0  0  0  0
    8.8750    1.2880    0.0000 C   0  0  3  0  0  0  0  0  0  0  0  0
    8.8750   -0.3215    0.0000 C   0  0  3  0  0  0  0  0  0  0  0  0
    4.3433   -2.1149    0.0000 C   0  0  0  0  0  0  0  0  0  0  0  0
    7.0628    1.4833    0.0000 C   0  0  0  0  0  0  0  0  0  0  0  0
    6.1808   -2.0860    0.0000 C   0  0  0  0  0  0  0  0  0  0  0  0
    7.0789   -1.5582    0.0000 C   0  0  3  0  0  0  0  0  0  0  0  0
    9.4586    0.4833    0.0000 C   0  0  0  0  0  0  0  0  0  0  0  0
    4.3599    0.0405    0.0000 C   0  0  0  0  0  0  0  0  0  0  0  0
    6.1968    0.9833    0.0000 C   0  0  0  0  0  0  0  0  0  0  0  0
    3.4037   -1.5724    0.0000 C   0  0  3  0  0  0  0  0  0  0  0  0
    7.9288   -1.0167    0.0000 C   0  0  0  0  0  0  0  0  0  0  0  0
    7.9288    1.9833    0.0000 C   0  0  0  0  0  0  0  0  0  0  0  0
    3.4120   -0.4874    0.0000 C   0  0  0  0  0  0  0  0  0  0  0  0
    5.2945    0.4764    0.0000 C   0  0  0  0  0  0  0  0  0  0  0  0
    3.8467   -2.9828    0.0000 C   0  0  0  0  0  0  0  0  0  0  0  0
    4.8466   -2.9790    0.0000 C   0  0  0  0  0  0  0  0  0  0  0  0
    9.1857    2.2385    0.0000 C   0  0  0  0  0  0  0  0  0  0  0  0
   10.1642    2.4448    0.0000 C   0  0  0  0  0  0  0  0  0  0  0  0
    5.2811   -2.1852    0.0000 H   0  0  0  0  0  0  0  0  0  0  0  0
    9.4875    1.3842    0.0000 H   0  0  0  0  0  0  0  0  0  0  0  0
    9.4875   -0.4176    0.0000 H   0  0  0  0  0  0  0  0  0  0  0  0
    7.4613    1.9582    0.0000 H   0  0  0  0  0  0  0  0  0  0  0  0
    6.6643    1.9582    0.0000 H   0  0  0  0  0  0  0  0  0  0  0  0
    5.7835   -2.5620    0.0000 H   0  0  0  0  0  0  0  0  0  0  0  0
    6.5818   -2.5589    0.0000 H   0  0  0  0  0  0  0  0  0  0  0  0
    7.6116   -1.2410    0.0000 H   0  0  0  0  0  0  0  0  0  0  0  0
    9.9195    0.0686    0.0000 H   0  0  0  0  0  0  0  0  0  0  0  0
    9.9195    0.8980    0.0000 H   0  0  0  0  0  0  0  0  0  0  0  0
    4.7681    0.5072    0.0000 H   0  0  0  0  0  0  0  0  0  0  0  0
    3.9700    0.5226    0.0000 H   0  0  0  0  0  0  0  0  0  0  0  0
    2.8686   -1.2593    0.0000 H   0  0  0  0  0  0  0  0  0  0  0  0
    7.3088   -1.0167    0.0000 H   0  0  0  0  0  0  0  0  0  0  0  0
    7.9288   -1.6367    0.0000 H   0  0  0  0  0  0  0  0  0  0  0  0
    8.5488   -1.0167    0.0000 H   0  0  0  0  0  0  0  0  0  0  0  0
    8.5488    1.9833    0.0000 H   0  0  0  0  0  0  0  0  0  0  0  0
    7.9288    2.6033    0.0000 H   0  0  0  0  0  0  0  0  0  0  0  0
    7.3088    1.9833    0.0000 H   0  0  0  0  0  0  0  0  0  0  0  0
    3.2075    0.0979    0.0000 H   0  0  0  0  0  0  0  0  0  0  0  0
    2.8004   -0.5888    0.0000 H   0  0  0  0  0  0  0  0  0  0  0  0
    5.9145    0.4716    0.0000 H   0  0  0  0  0  0  0  0  0  0  0  0
    5.2993    1.0964    0.0000 H   0  0  0  0  0  0  0  0  0  0  0  0
    4.6745    0.4812    0.0000 H   0  0  0  0  0  0  0  0  0  0  0  0
    3.3085   -2.6749    0.0000 H   0  0  0  0  0  0  0  0  0  0  0  0
    3.5387   -3.5210    0.0000 H   0  0  0  0  0  0  0  0  0  0  0  0
    4.3848   -3.2908    0.0000 H   0  0  0  0  0  0  0  0  0  0  0  0
    4.3109   -3.2910    0.0000 H   0  0  0  0  0  0  0  0  0  0  0  0
    5.1587   -3.5147    0.0000 H   0  0  0  0  0  0  0  0  0  0  0  0
    5.3824   -2.6669    0.0000 H   0  0  0  0  0  0  0  0  0  0  0  0
    9.7924   -1.3998    0.0000 H   0  0  0  0  0  0  0  0  0  0  0  0
    7.9578   -2.6681    0.0000 H   0  0  0  0  0  0  0  0  0  0  0  0
    2.0000   -1.7570    0.0000 H   0  0  0  0  0  0  0  0  0  0  0  0
   10.2921    1.8381    0.0000 H   0  0  0  0  0  0  0  0  0  0  0  0
   10.7709    2.5726    0.0000 H   0  0  0  0  0  0  0  0  0  0  0  0
   10.0364    3.0514    0.0000 H   0  0  0  0  0  0  0  0  0  0  0  0
  1 13  1  0  0  0  0
  1 60  1  0  0  0  0
  2 17  1  0  0  0  0
  2 61  1  0  0  0  0
  3 21  1  0  0  0  0
  3 62  1  0  0  0  0
  4 20  2  0  0  0  0
  5 28  2  0  0  0  0
  6  7  1  0  0  0  0
  6 10  1  0  0  0  0
  6 13  1  0  0  0  0
  6 22  1  0  0  0  0
  7 12  1  0  0  0  0
  7 15  1  0  0  0  0
  7 23  1  0  0  0  0
  8  9  1  0  0  0  0
  8 11  1  0  0  0  0
  8 19  1  0  0  0  0
  8 25  1  0  0  0  0
  9 14  1  0  0  0  0
  9 16  1  0  0  0  0
  9 30  1  0  0  0  0
 10 11  2  0  0  0  0
 10 17  1  0  0  0  0
 11 20  1  0  0  0  0
 12 18  1  0  0  0  0
 12 28  1  0  0  0  0
 12 31  1  0  0  0  0
 13 18  1  0  0  0  0
 13 32  1  0  0  0  0
 14 21  1  0  0  0  0
 14 26  1  0  0  0  0
 14 27  1  0  0  0  0
 15 20  1  0  0  0  0
 15 33  1  0  0  0  0
 15 34  1  0  0  0  0
 16 17  1  0  0  0  0
 16 35  1  0  0  0  0
 16 36  1  0  0  0  0
 17 37  1  0  0  0  0
 18 38  1  0  0  0  0
 18 39  1  0  0  0  0
 19 24  1  0  0  0  0
 19 40  1  0  0  0  0
 19 41  1  0  0  0  0
 21 24  1  0  0  0  0
 21 42  1  0  0  0  0
 22 43  1  0  0  0  0
 22 44  1  0  0  0  0
 22 45  1  0  0  0  0
 23 46  1  0  0  0  0
 23 47  1  0  0  0  0
 23 48  1  0  0  0  0
 24 49  1  0  0  0  0
 24 50  1  0  0  0  0
 25 51  1  0  0  0  0
 25 52  1  0  0  0  0
 25 53  1  0  0  0  0
 26 54  1  0  0  0  0
 26 55  1  0  0  0  0
 26 56  1  0  0  0  0
 27 57  1  0  0  0  0
 27 58  1  0  0  0  0
 27 59  1  0  0  0  0
 28 29  1  0  0  0  0
 29 63  1  0  0  0  0
 29 64  1  0  0  0  0
 29 65  1  0  0  0  0
M  END
> <PUBCHEM_COMPOUND_CID>
14109415

> <PUBCHEM_COMPOUND_CANONICALIZED>
1

> <PUBCHEM_CACTVS_COMPLEXITY>
812

> <PUBCHEM_CACTVS_HBOND_ACCEPTOR>
5

> <PUBCHEM_CACTVS_HBOND_DONOR>
3

> <PUBCHEM_CACTVS_ROTATABLE_BOND>
1

> <PUBCHEM_CACTVS_SUBSKEYS>
AAADcfB4OAAAAAAAAAAAAAAAAAAAAYAAAAAwQIAAAAAAAEDAAAAAGgAACAAADxSggAICAAAAAgCIAoBQAAAAAAAgAAAACAEAAEgAFBIAAAAAUAAEwAAIEQPK7vTvgAAAAAAAAABAAAYAADAAAYAADAAAAA==

> <PUBCHEM_IUPAC_OPENEYE_NAME>
17-acetyl-3,7,15-trihydroxy-4,4,10,13,14-pentamethyl-1,2,3,5,6,7,12,15,16,17-decahydrocyclopenta[a]phenanthren-11-one

> <PUBCHEM_IUPAC_CAS_NAME>
17-acetyl-3,7,15-trihydroxy-4,4,10,13,14-pentamethyl-1,2,3,5,6,7,12,15,16,17-decahydrocyclopenta[a]phenanthren-11-one

> <PUBCHEM_IUPAC_NAME_MARKUP>
17-acetyl-3,7,15-trihydroxy-4,4,10,13,14-pentamethyl-1,2,3,5,6,7,12,15,16,17-decahydrocyclopenta[a]phenanthren-11-one

> <PUBCHEM_IUPAC_NAME>
17-acetyl-3,7,15-trihydroxy-4,4,10,13,14-pentamethyl-1,2,3,5,6,7,12,15,16,17-decahydrocyclopenta[a]phenanthren-11-one

> <PUBCHEM_IUPAC_SYSTEMATIC_NAME>
17-ethanoyl-4,4,10,13,14-pentamethyl-3,7,15-tris(oxidanyl)-1,2,3,5,6,7,12,15,16,17-decahydrocyclopenta[a]phenanthren-11-one

> <PUBCHEM_IUPAC_TRADITIONAL_NAME>
17-acetyl-3,7,15-trihydroxy-4,4,10,13,14-pentamethyl-1,2,3,5,6,7,12,15,16,17-decahydrocyclopenta[a]phenanthren-11-one

> <PUBCHEM_IUPAC_INCHI>
InChI=1S/C24H36O5/c1-12(25)13-9-18(29)24(6)20-14(26)10-16-21(2,3)17(28)7-8-22(16,4)19(20)15(27)11-23(13,24)5/h13-14,16-18,26,28-29H,7-11H2,1-6H3

> <PUBCHEM_IUPAC_INCHIKEY>
JEVOHZHOHSNOGF-UHFFFAOYSA-N

> <PUBCHEM_XLOGP3_AA>
1.5

> <PUBCHEM_EXACT_MASS>
404.256274

> <PUBCHEM_MOLECULAR_FORMULA>
C24H36O5

> <PUBCHEM_MOLECULAR_WEIGHT>
404.5

> <PUBCHEM_OPENEYE_CAN_SMILES>
CC(=O)C1CC(C2(C1(CC(=O)C3=C2C(CC4C3(CCC(C4(C)C)O)C)O)C)C)O

> <PUBCHEM_OPENEYE_ISO_SMILES>
CC(=O)C1CC(C2(C1(CC(=O)C3=C2C(CC4C3(CCC(C4(C)C)O)C)O)C)C)O

> <PUBCHEM_CACTVS_TPSA>
94.8

> <PUBCHEM_MONOISOTOPIC_WEIGHT>
404.256274

> <PUBCHEM_TOTAL_CHARGE>
0

> <PUBCHEM_HEAVY_ATOM_COUNT>
29

> <PUBCHEM_ATOM_DEF_STEREO_COUNT>
0

> <PUBCHEM_ATOM_UDEF_STEREO_COUNT>
8

> <PUBCHEM_BOND_DEF_STEREO_COUNT>
0

> <PUBCHEM_BOND_UDEF_STEREO_COUNT>
0

> <PUBCHEM_ISOTOPIC_ATOM_COUNT>
0

> <PUBCHEM_COMPONENT_COUNT>
1

> <PUBCHEM_CACTVS_TAUTO_COUNT>
-1

> <PUBCHEM_COORDINATE_TYPE>
1
5
255

> <PUBCHEM_BONDANNOTATIONS>
13  1  3
12  28  3
17  2  3
21  3  3
6  22  3
7  23  3
8  25  3
9  16  3

$$$$
