14015438
  -OEChem-09122006172D

 81 85  0     1  0  0  0  0  0999 V2000
    2.5357   -3.3546    0.0000 O   0  0  0  0  0  0  0  0  0  0  0  0
   12.4039    2.0053    0.0000 O   0  0  0  0  0  0  0  0  0  0  0  0
   13.4868    4.1405    0.0000 O   0  0  0  0  0  0  0  0  0  0  0  0
    7.9288   -0.3023    0.0000 C   0  0  3  0  0  0  0  0  0  0  0  0
    7.9288   -1.3023    0.0000 C   0  0  3  0  0  0  0  0  0  0  0  0
    8.8750    0.0025    0.0000 C   0  0  3  0  0  0  0  0  0  0  0  0
    5.2868   -1.8091    0.0000 C   0  0  3  0  0  0  0  0  0  0  0  0
    8.8750   -1.6070    0.0000 C   0  0  0  0  0  0  0  0  0  0  0  0
    7.0628   -1.8023    0.0000 C   0  0  0  0  0  0  0  0  0  0  0  0
    9.4586   -0.8023    0.0000 C   0  0  0  0  0  0  0  0  0  0  0  0
    5.2787   -2.8507    0.0000 C   0  0  3  0  0  0  0  0  0  0  0  0
    7.0628    0.1977    0.0000 C   0  0  0  0  0  0  0  0  0  0  0  0
    6.1968   -1.3023    0.0000 C   0  0  0  0  0  0  0  0  0  0  0  0
    9.1857    0.9530    0.0000 C   0  0  3  0  0  0  0  0  0  0  0  0
    4.3433   -3.4004    0.0000 C   0  0  0  0  0  0  0  0  0  0  0  0
    7.9288    0.6977    0.0000 C   0  0  0  0  0  0  0  0  0  0  0  0
    7.9288   -2.3023    0.0000 C   0  0  0  0  0  0  0  0  0  0  0  0
    4.3599   -1.2450    0.0000 C   0  0  0  0  0  0  0  0  0  0  0  0
    6.1968   -0.3023    0.0000 C   0  0  0  0  0  0  0  0  0  0  0  0
    6.1808   -3.3715    0.0000 C   0  0  0  0  0  0  0  0  0  0  0  0
    7.0789   -2.8438    0.0000 C   0  0  0  0  0  0  0  0  0  0  0  0
    3.4037   -2.8579    0.0000 C   0  0  3  0  0  0  0  0  0  0  0  0
    3.4120   -1.7730    0.0000 C   0  0  0  0  0  0  0  0  0  0  0  0
    5.2945   -0.8091    0.0000 C   0  0  0  0  0  0  0  0  0  0  0  0
   10.1642    1.1592    0.0000 C   0  0  0  0  0  0  0  0  0  0  0  0
    8.5179    1.6973    0.0000 C   0  0  0  0  0  0  0  0  0  0  0  0
    3.8467   -4.2684    0.0000 C   0  0  0  0  0  0  0  0  0  0  0  0
    4.8466   -4.2645    0.0000 C   0  0  0  0  0  0  0  0  0  0  0  0
   10.4749    2.1097    0.0000 C   0  0  0  0  0  0  0  0  0  0  0  0
   11.4534    2.3159    0.0000 C   0  0  3  0  0  0  0  0  0  0  0  0
   12.1977    2.9838    0.0000 C   0  0  3  0  0  0  0  0  0  0  0  0
   13.1762    3.1900    0.0000 C   0  0  0  0  0  0  0  0  0  0  0  0
   11.5298    3.7281    0.0000 C   0  0  0  0  0  0  0  0  0  0  0  0
    9.4875    0.0987    0.0000 H   0  0  0  0  0  0  0  0  0  0  0  0
    8.6240   -2.1739    0.0000 H   0  0  0  0  0  0  0  0  0  0  0  0
    9.4124   -1.9162    0.0000 H   0  0  0  0  0  0  0  0  0  0  0  0
    9.9195   -1.2170    0.0000 H   0  0  0  0  0  0  0  0  0  0  0  0
    9.9195   -0.3875    0.0000 H   0  0  0  0  0  0  0  0  0  0  0  0
    5.2811   -3.4707    0.0000 H   0  0  0  0  0  0  0  0  0  0  0  0
    7.4613    0.6727    0.0000 H   0  0  0  0  0  0  0  0  0  0  0  0
    6.6643    0.6727    0.0000 H   0  0  0  0  0  0  0  0  0  0  0  0
    9.3783    1.5423    0.0000 H   0  0  0  0  0  0  0  0  0  0  0  0
    8.5488    0.6977    0.0000 H   0  0  0  0  0  0  0  0  0  0  0  0
    7.9288    1.3177    0.0000 H   0  0  0  0  0  0  0  0  0  0  0  0
    7.3088    0.6977    0.0000 H   0  0  0  0  0  0  0  0  0  0  0  0
    7.3088   -2.3023    0.0000 H   0  0  0  0  0  0  0  0  0  0  0  0
    7.9288   -2.9223    0.0000 H   0  0  0  0  0  0  0  0  0  0  0  0
    8.5488   -2.3023    0.0000 H   0  0  0  0  0  0  0  0  0  0  0  0
    4.7681   -0.7784    0.0000 H   0  0  0  0  0  0  0  0  0  0  0  0
    3.9700   -0.7630    0.0000 H   0  0  0  0  0  0  0  0  0  0  0  0
    5.6598    0.0077    0.0000 H   0  0  0  0  0  0  0  0  0  0  0  0
    5.7835   -3.8475    0.0000 H   0  0  0  0  0  0  0  0  0  0  0  0
    6.5818   -3.8444    0.0000 H   0  0  0  0  0  0  0  0  0  0  0  0
    7.6193   -3.1475    0.0000 H   0  0  0  0  0  0  0  0  0  0  0  0
    2.8686   -2.5448    0.0000 H   0  0  0  0  0  0  0  0  0  0  0  0
    3.2075   -1.1877    0.0000 H   0  0  0  0  0  0  0  0  0  0  0  0
    2.8004   -1.8744    0.0000 H   0  0  0  0  0  0  0  0  0  0  0  0
    5.9145   -0.8139    0.0000 H   0  0  0  0  0  0  0  0  0  0  0  0
    5.2993   -0.1892    0.0000 H   0  0  0  0  0  0  0  0  0  0  0  0
    4.6745   -0.8044    0.0000 H   0  0  0  0  0  0  0  0  0  0  0  0
   10.1848    0.5395    0.0000 H   0  0  0  0  0  0  0  0  0  0  0  0
   10.7780    1.0719    0.0000 H   0  0  0  0  0  0  0  0  0  0  0  0
    8.9793    2.1114    0.0000 H   0  0  0  0  0  0  0  0  0  0  0  0
    8.1038    2.1588    0.0000 H   0  0  0  0  0  0  0  0  0  0  0  0
    8.0564    1.2832    0.0000 H   0  0  0  0  0  0  0  0  0  0  0  0
    3.3085   -3.9604    0.0000 H   0  0  0  0  0  0  0  0  0  0  0  0
    3.5387   -4.8065    0.0000 H   0  0  0  0  0  0  0  0  0  0  0  0
    4.3848   -4.5763    0.0000 H   0  0  0  0  0  0  0  0  0  0  0  0
    4.3109   -4.5766    0.0000 H   0  0  0  0  0  0  0  0  0  0  0  0
    5.1587   -4.8003    0.0000 H   0  0  0  0  0  0  0  0  0  0  0  0
    5.3824   -3.9525    0.0000 H   0  0  0  0  0  0  0  0  0  0  0  0
   10.4543    2.7294    0.0000 H   0  0  0  0  0  0  0  0  0  0  0  0
    9.8611    2.1971    0.0000 H   0  0  0  0  0  0  0  0  0  0  0  0
   11.4199    1.6968    0.0000 H   0  0  0  0  0  0  0  0  0  0  0  0
    2.0000   -3.0425    0.0000 H   0  0  0  0  0  0  0  0  0  0  0  0
   13.1967    2.5704    0.0000 H   0  0  0  0  0  0  0  0  0  0  0  0
   13.7900    3.1027    0.0000 H   0  0  0  0  0  0  0  0  0  0  0  0
   11.9913    4.1422    0.0000 H   0  0  0  0  0  0  0  0  0  0  0  0
   11.1158    4.1896    0.0000 H   0  0  0  0  0  0  0  0  0  0  0  0
   11.0684    3.3140    0.0000 H   0  0  0  0  0  0  0  0  0  0  0  0
   14.0935    4.2684    0.0000 H   0  0  0  0  0  0  0  0  0  0  0  0
  1 22  1  0  0  0  0
  1 75  1  0  0  0  0
  2 30  1  0  0  0  0
  2 31  1  0  0  0  0
  3 32  1  0  0  0  0
  3 81  1  0  0  0  0
  4  5  1  0  0  0  0
  4  6  1  0  0  0  0
  4 12  1  0  0  0  0
  4 16  1  0  0  0  0
  5  8  1  0  0  0  0
  5  9  1  0  0  0  0
  5 17  1  0  0  0  0
  6 10  1  0  0  0  0
  6 14  1  0  0  0  0
  6 34  1  0  0  0  0
  7 11  1  0  0  0  0
  7 13  1  0  0  0  0
  7 18  1  0  0  0  0
  7 24  1  0  0  0  0
  8 10  1  0  0  0  0
  8 35  1  0  0  0  0
  8 36  1  0  0  0  0
  9 13  1  0  0  0  0
  9 21  2  0  0  0  0
 10 37  1  0  0  0  0
 10 38  1  0  0  0  0
 11 15  1  0  0  0  0
 11 20  1  0  0  0  0
 11 39  1  0  0  0  0
 12 19  1  0  0  0  0
 12 40  1  0  0  0  0
 12 41  1  0  0  0  0
 13 19  2  0  0  0  0
 14 25  1  0  0  0  0
 14 26  1  0  0  0  0
 14 42  1  0  0  0  0
 15 22  1  0  0  0  0
 15 27  1  0  0  0  0
 15 28  1  0  0  0  0
 16 43  1  0  0  0  0
 16 44  1  0  0  0  0
 16 45  1  0  0  0  0
 17 46  1  0  0  0  0
 17 47  1  0  0  0  0
 17 48  1  0  0  0  0
 18 23  1  0  0  0  0
 18 49  1  0  0  0  0
 18 50  1  0  0  0  0
 19 51  1  0  0  0  0
 20 21  1  0  0  0  0
 20 52  1  0  0  0  0
 20 53  1  0  0  0  0
 21 54  1  0  0  0  0
 22 23  1  0  0  0  0
 22 55  1  0  0  0  0
 23 56  1  0  0  0  0
 23 57  1  0  0  0  0
 24 58  1  0  0  0  0
 24 59  1  0  0  0  0
 24 60  1  0  0  0  0
 25 29  1  0  0  0  0
 25 61  1  0  0  0  0
 25 62  1  0  0  0  0
 26 63  1  0  0  0  0
 26 64  1  0  0  0  0
 26 65  1  0  0  0  0
 27 66  1  0  0  0  0
 27 67  1  0  0  0  0
 27 68  1  0  0  0  0
 28 69  1  0  0  0  0
 28 70  1  0  0  0  0
 28 71  1  0  0  0  0
 29 30  1  0  0  0  0
 29 72  1  0  0  0  0
 29 73  1  0  0  0  0
 30 31  1  0  0  0  0
 30 74  1  0  0  0  0
 31 32  1  0  0  0  0
 31 33  1  0  0  0  0
 32 76  1  0  0  0  0
 32 77  1  0  0  0  0
 33 78  1  0  0  0  0
 33 79  1  0  0  0  0
 33 80  1  0  0  0  0
M  END
> <PUBCHEM_COMPOUND_CID>
14015438

> <PUBCHEM_COMPOUND_CANONICALIZED>
1

> <PUBCHEM_CACTVS_COMPLEXITY>
872

> <PUBCHEM_CACTVS_HBOND_ACCEPTOR>
3

> <PUBCHEM_CACTVS_HBOND_DONOR>
2

> <PUBCHEM_CACTVS_ROTATABLE_BOND>
5

> <PUBCHEM_CACTVS_SUBSKEYS>
AAADcfB4MAAAAAAAAAAAAAAAEgAAAYAAAAAwQIAAAAAAAECAAAAAGgAACAAAD1SggAICAAAABgCAAiBCAAAAAAAgAAAACAAAAAgJEAIAAAACQAAFgAALgAOAwPAPgAAAAAAAAABAAAYAADAAAQAACAAAAA==

> <PUBCHEM_IUPAC_OPENEYE_NAME>
17-[3-[3-(hydroxymethyl)-3-methyl-oxiran-2-yl]-1-methyl-propyl]-4,4,10,13,14-pentamethyl-2,3,5,6,12,15,16,17-octahydro-1H-cyclopenta[a]phenanthren-3-ol

> <PUBCHEM_IUPAC_CAS_NAME>
17-[4-[3-(hydroxymethyl)-3-methyl-2-oxiranyl]butan-2-yl]-4,4,10,13,14-pentamethyl-2,3,5,6,12,15,16,17-octahydro-1H-cyclopenta[a]phenanthren-3-ol

> <PUBCHEM_IUPAC_NAME_MARKUP>
17-[4-[3-(hydroxymethyl)-3-methyloxiran-2-yl]butan-2-yl]-4,4,10,13,14-pentamethyl-2,3,5,6,12,15,16,17-octahydro-1<I>H</I>-cyclopenta[a]phenanthren-3-ol

> <PUBCHEM_IUPAC_NAME>
17-[4-[3-(hydroxymethyl)-3-methyloxiran-2-yl]butan-2-yl]-4,4,10,13,14-pentamethyl-2,3,5,6,12,15,16,17-octahydro-1H-cyclopenta[a]phenanthren-3-ol

> <PUBCHEM_IUPAC_SYSTEMATIC_NAME>
17-[4-[3-(hydroxymethyl)-3-methyl-oxiran-2-yl]butan-2-yl]-4,4,10,13,14-pentamethyl-2,3,5,6,12,15,16,17-octahydro-1H-cyclopenta[a]phenanthren-3-ol

> <PUBCHEM_IUPAC_TRADITIONAL_NAME>
4,4,10,13,14-pentamethyl-17-[1-methyl-3-(3-methyl-3-methylol-oxiran-2-yl)propyl]-2,3,5,6,12,15,16,17-octahydro-1H-cyclopenta[a]phenanthren-3-ol

> <PUBCHEM_IUPAC_INCHI>
InChI=1S/C30H48O3/c1-19(8-11-25-30(7,18-31)33-25)20-12-16-29(6)22-9-10-23-26(2,3)24(32)14-15-27(23,4)21(22)13-17-28(20,29)5/h9,13,19-20,23-25,31-32H,8,10-12,14-18H2,1-7H3

> <PUBCHEM_IUPAC_INCHIKEY>
DDRCMNMGPGTECR-UHFFFAOYSA-N

> <PUBCHEM_XLOGP3_AA>
6.1

> <PUBCHEM_EXACT_MASS>
456.360345

> <PUBCHEM_MOLECULAR_FORMULA>
C30H48O3

> <PUBCHEM_MOLECULAR_WEIGHT>
456.7

> <PUBCHEM_OPENEYE_CAN_SMILES>
CC(CCC1C(O1)(C)CO)C2CCC3(C2(CC=C4C3=CCC5C4(CCC(C5(C)C)O)C)C)C

> <PUBCHEM_OPENEYE_ISO_SMILES>
CC(CCC1C(O1)(C)CO)C2CCC3(C2(CC=C4C3=CCC5C4(CCC(C5(C)C)O)C)C)C

> <PUBCHEM_CACTVS_TPSA>
53

> <PUBCHEM_MONOISOTOPIC_WEIGHT>
456.360345

> <PUBCHEM_TOTAL_CHARGE>
0

> <PUBCHEM_HEAVY_ATOM_COUNT>
33

> <PUBCHEM_ATOM_DEF_STEREO_COUNT>
0

> <PUBCHEM_ATOM_UDEF_STEREO_COUNT>
9

> <PUBCHEM_BOND_DEF_STEREO_COUNT>
0

> <PUBCHEM_BOND_UDEF_STEREO_COUNT>
0

> <PUBCHEM_ISOTOPIC_ATOM_COUNT>
0

> <PUBCHEM_COMPONENT_COUNT>
1

> <PUBCHEM_CACTVS_TAUTO_COUNT>
-1

> <PUBCHEM_COORDINATE_TYPE>
1
5
255

> <PUBCHEM_BONDANNOTATIONS>
22  1  3
11  20  3
14  26  3
30  29  3
31  33  3
4  16  3
5  17  3
6  10  3
7  24  3

$$$$
