11051372
  -OEChem-08262005432D

129134  0     1  0  0  0  0  0999 V2000
   10.3312   -4.9176    0.0000 O   0  0  0  0  0  0  0  0  0  0  0  0
   10.3312   -1.9176    0.0000 O   0  0  0  0  0  0  0  0  0  0  0  0
   12.0632   -4.9176    0.0000 O   0  0  0  0  0  0  0  0  0  0  0  0
    8.5991   -3.9176    0.0000 O   0  0  0  0  0  0  0  0  0  0  0  0
   12.0632   -1.9176    0.0000 O   0  0  0  0  0  0  0  0  0  0  0  0
   12.0632   -3.9176    0.0000 O   0  0  0  0  0  0  0  0  0  0  0  0
   10.3312   -6.9176    0.0000 O   0  0  0  0  0  0  0  0  0  0  0  0
   12.0632   -7.9176    0.0000 O   0  0  0  0  0  0  0  0  0  0  0  0
   13.7953   -6.9176    0.0000 O   0  0  0  0  0  0  0  0  0  0  0  0
    8.5991   -0.9176    0.0000 O   0  0  0  0  0  0  0  0  0  0  0  0
    7.0078    5.1072    0.0000 O   0  0  0  0  0  0  0  0  0  0  0  0
    8.3346    3.9939    0.0000 O   0  0  0  0  0  0  0  0  0  0  0  0
    8.9362    7.4054    0.0000 O   0  0  0  0  0  0  0  0  0  0  0  0
    9.6202    5.5260    0.0000 O   0  0  0  0  0  0  0  0  0  0  0  0
    6.9665    7.7526    0.0000 O   0  0  0  0  0  0  0  0  0  0  0  0
    6.7070    3.4015    0.0000 O   0  0  0  0  0  0  0  0  0  0  0  0
    7.7331   -2.4176    0.0000 O   0  0  0  0  0  0  0  0  0  0  0  0
    5.3390    7.1602    0.0000 O   0  0  0  0  0  0  0  0  0  0  0  0
    6.8671   -0.9176    0.0000 O   0  0  0  0  0  0  0  0  0  0  0  0
    4.7787    1.1034    0.0000 O   0  0  0  0  0  0  0  0  0  0  0  0
    6.1055   -0.0100    0.0000 O   0  0  0  0  0  0  0  0  0  0  0  0
   14.6613    2.5824    0.0000 O   0  0  0  0  0  0  0  0  0  0  0  0
   12.9292    3.5824    0.0000 O   0  0  0  0  0  0  0  0  0  0  0  0
    2.5369   -3.4176    0.0000 O   0  0  0  0  0  0  0  0  0  0  0  0
    2.5369   -5.4176    0.0000 O   0  0  0  0  0  0  0  0  0  0  0  0
   10.3312   -3.9176    0.0000 C   0  0  1  0  0  0  0  0  0  0  0  0
    9.4651   -3.4176    0.0000 C   0  0  1  0  0  0  0  0  0  0  0  0
   11.1972   -3.4176    0.0000 C   0  0  2  0  0  0  0  0  0  0  0  0
    9.4651   -2.4176    0.0000 C   0  0  1  0  0  0  0  0  0  0  0  0
   11.1972   -5.4176    0.0000 C   0  0  2  0  0  0  0  0  0  0  0  0
   11.1972   -2.4176    0.0000 C   0  0  1  0  0  0  0  0  0  0  0  0
   11.1972   -6.4176    0.0000 C   0  0  1  0  0  0  0  0  0  0  0  0
   12.0632   -6.9176    0.0000 C   0  0  1  0  0  0  0  0  0  0  0  0
   12.9292   -6.4176    0.0000 C   0  0  2  0  0  0  0  0  0  0  0  0
   12.9292   -5.4176    0.0000 C   0  0  2  0  0  0  0  0  0  0  0  0
    8.5991   -1.9176    0.0000 C   0  0  0  0  0  0  0  0  0  0  0  0
   13.7953   -4.9176    0.0000 C   0  0  0  0  0  0  0  0  0  0  0  0
    8.2934    6.6393    0.0000 C   0  0  2  0  0  0  0  0  0  0  0  0
    8.6354    5.6996    0.0000 C   0  0  2  0  0  0  0  0  0  0  0  0
    7.3086    6.8130    0.0000 C   0  0  1  0  0  0  0  0  0  0  0  0
    7.9926    4.9336    0.0000 C   0  0  1  0  0  0  0  0  0  0  0  0
    6.6658    6.0469    0.0000 C   0  0  1  0  0  0  0  0  0  0  0  0
   12.0632   -0.9176    0.0000 C   0  0  0  0  0  0  0  0  0  0  0  0
    7.3911    1.5221    0.0000 C   0  0  1  0  0  0  0  0  0  0  0  0
    7.7331   -3.4176    0.0000 C   0  0  0  0  0  0  0  0  0  0  0  0
    7.7331    0.5824    0.0000 C   0  0  0  0  0  0  0  0  0  0  0  0
    7.6918    3.2278    0.0000 C   0  0  2  0  0  0  0  0  0  0  0  0
    8.0339    2.2881    0.0000 C   0  0  0  0  0  0  0  0  0  0  0  0
    7.7331   -0.4176    0.0000 C   0  0  0  0  0  0  0  0  0  0  0  0
   12.9292   -0.4176    0.0000 C   0  0  0  0  0  0  0  0  0  0  0  0
    5.6810    6.2206    0.0000 C   0  0  0  0  0  0  0  0  0  0  0  0
    6.4063    1.6958    0.0000 C   0  0  0  0  0  0  0  0  0  0  0  0
    6.8671   -3.9176    0.0000 C   0  0  0  0  0  0  0  0  0  0  0  0
    6.0642    2.6354    0.0000 C   0  0  0  0  0  0  0  0  0  0  0  0
    9.0187    2.1145    0.0000 C   0  0  0  0  0  0  0  0  0  0  0  0
   12.9292    0.5824    0.0000 C   0  0  0  0  0  0  0  0  0  0  0  0
    5.7635    0.9297    0.0000 C   0  0  0  0  0  0  0  0  0  0  0  0
    9.3607    1.1748    0.0000 C   0  0  0  0  0  0  0  0  0  0  0  0
    6.0010   -3.4176    0.0000 C   0  0  0  0  0  0  0  0  0  0  0  0
   13.7953    1.0824    0.0000 C   0  0  0  0  0  0  0  0  0  0  0  0
   12.0632    1.0824    0.0000 C   0  0  0  0  0  0  0  0  0  0  0  0
   13.7953    2.0824    0.0000 C   0  0  0  0  0  0  0  0  0  0  0  0
    5.1350   -3.9176    0.0000 C   0  0  0  0  0  0  0  0  0  0  0  0
   12.0632    2.0824    0.0000 C   0  0  0  0  0  0  0  0  0  0  0  0
   12.9292    2.5824    0.0000 C   0  0  0  0  0  0  0  0  0  0  0  0
    4.2690   -3.4176    0.0000 C   0  0  0  0  0  0  0  0  0  0  0  0
    5.1350   -4.9176    0.0000 C   0  0  0  0  0  0  0  0  0  0  0  0
    4.4367    2.0431    0.0000 C   0  0  0  0  0  0  0  0  0  0  0  0
    3.4030   -3.9176    0.0000 C   0  0  0  0  0  0  0  0  0  0  0  0
    4.2690   -5.4176    0.0000 C   0  0  0  0  0  0  0  0  0  0  0  0
    3.4030   -4.9176    0.0000 C   0  0  0  0  0  0  0  0  0  0  0  0
   10.8681   -4.2276    0.0000 H   0  0  0  0  0  0  0  0  0  0  0  0
    9.4651   -4.0376    0.0000 H   0  0  0  0  0  0  0  0  0  0  0  0
   11.1972   -4.0376    0.0000 H   0  0  0  0  0  0  0  0  0  0  0  0
    9.4651   -1.7976    0.0000 H   0  0  0  0  0  0  0  0  0  0  0  0
   11.1972   -4.7976    0.0000 H   0  0  0  0  0  0  0  0  0  0  0  0
   11.7341   -2.7276    0.0000 H   0  0  0  0  0  0  0  0  0  0  0  0
   11.1972   -7.0376    0.0000 H   0  0  0  0  0  0  0  0  0  0  0  0
   11.5263   -7.2276    0.0000 H   0  0  0  0  0  0  0  0  0  0  0  0
   12.9292   -7.0376    0.0000 H   0  0  0  0  0  0  0  0  0  0  0  0
   12.9292   -4.7976    0.0000 H   0  0  0  0  0  0  0  0  0  0  0  0
    7.9885   -1.8099    0.0000 H   0  0  0  0  0  0  0  0  0  0  0  0
    8.3871   -2.5002    0.0000 H   0  0  0  0  0  0  0  0  0  0  0  0
   14.1053   -5.4545    0.0000 H   0  0  0  0  0  0  0  0  0  0  0  0
   14.3322   -4.6076    0.0000 H   0  0  0  0  0  0  0  0  0  0  0  0
   13.4853   -4.3807    0.0000 H   0  0  0  0  0  0  0  0  0  0  0  0
   12.6002   -3.6076    0.0000 H   0  0  0  0  0  0  0  0  0  0  0  0
    8.9040    6.5316    0.0000 H   0  0  0  0  0  0  0  0  0  0  0  0
   10.3312   -7.5376    0.0000 H   0  0  0  0  0  0  0  0  0  0  0  0
    8.8474    5.1170    0.0000 H   0  0  0  0  0  0  0  0  0  0  0  0
    7.7071    7.2879    0.0000 H   0  0  0  0  0  0  0  0  0  0  0  0
    7.5941    4.4586    0.0000 H   0  0  0  0  0  0  0  0  0  0  0  0
    6.2672    5.5720    0.0000 H   0  0  0  0  0  0  0  0  0  0  0  0
   12.6002   -8.2276    0.0000 H   0  0  0  0  0  0  0  0  0  0  0  0
   14.3322   -6.6076    0.0000 H   0  0  0  0  0  0  0  0  0  0  0  0
   11.8512   -0.3350    0.0000 H   0  0  0  0  0  0  0  0  0  0  0  0
   11.4526   -1.0253    0.0000 H   0  0  0  0  0  0  0  0  0  0  0  0
    6.9925    1.0472    0.0000 H   0  0  0  0  0  0  0  0  0  0  0  0
    8.3024    0.3368    0.0000 H   0  0  0  0  0  0  0  0  0  0  0  0
    7.1225    0.4747    0.0000 H   0  0  0  0  0  0  0  0  0  0  0  0
    8.3024    3.1202    0.0000 H   0  0  0  0  0  0  0  0  0  0  0  0
   13.1413   -1.0002    0.0000 H   0  0  0  0  0  0  0  0  0  0  0  0
   13.5398   -0.3099    0.0000 H   0  0  0  0  0  0  0  0  0  0  0  0
    5.0704    6.1129    0.0000 H   0  0  0  0  0  0  0  0  0  0  0  0
    5.6810    5.6006    0.0000 H   0  0  0  0  0  0  0  0  0  0  0  0
    8.7241    7.9880    0.0000 H   0  0  0  0  0  0  0  0  0  0  0  0
    7.3651    8.2276    0.0000 H   0  0  0  0  0  0  0  0  0  0  0  0
   10.0187    6.0009    0.0000 H   0  0  0  0  0  0  0  0  0  0  0  0
    6.8671   -4.5376    0.0000 H   0  0  0  0  0  0  0  0  0  0  0  0
    5.4536    2.7431    0.0000 H   0  0  0  0  0  0  0  0  0  0  0  0
    9.4172    2.5894    0.0000 H   0  0  0  0  0  0  0  0  0  0  0  0
    4.7284    7.2679    0.0000 H   0  0  0  0  0  0  0  0  0  0  0  0
    8.7781    0.9627    0.0000 H   0  0  0  0  0  0  0  0  0  0  0  0
    9.5727    0.5922    0.0000 H   0  0  0  0  0  0  0  0  0  0  0  0
    9.9433    1.3868    0.0000 H   0  0  0  0  0  0  0  0  0  0  0  0
    6.0010   -2.7976    0.0000 H   0  0  0  0  0  0  0  0  0  0  0  0
   14.3322    0.7724    0.0000 H   0  0  0  0  0  0  0  0  0  0  0  0
   11.5263    0.7724    0.0000 H   0  0  0  0  0  0  0  0  0  0  0  0
   11.5263    2.3924    0.0000 H   0  0  0  0  0  0  0  0  0  0  0  0
    4.2690   -2.7976    0.0000 H   0  0  0  0  0  0  0  0  0  0  0  0
    5.6720   -5.2276    0.0000 H   0  0  0  0  0  0  0  0  0  0  0  0
    5.0193    2.2551    0.0000 H   0  0  0  0  0  0  0  0  0  0  0  0
    4.2246    2.6257    0.0000 H   0  0  0  0  0  0  0  0  0  0  0  0
    3.8541    1.8311    0.0000 H   0  0  0  0  0  0  0  0  0  0  0  0
   15.1982    2.2724    0.0000 H   0  0  0  0  0  0  0  0  0  0  0  0
    4.2690   -6.0376    0.0000 H   0  0  0  0  0  0  0  0  0  0  0  0
   12.3923    3.8924    0.0000 H   0  0  0  0  0  0  0  0  0  0  0  0
    2.0000   -3.7276    0.0000 H   0  0  0  0  0  0  0  0  0  0  0  0
    2.5369   -6.0376    0.0000 H   0  0  0  0  0  0  0  0  0  0  0  0
 26  1  1  1  0  0  0
 30  1  1  6  0  0  0
  2 29  1  0  0  0  0
  2 31  1  0  0  0  0
  3 30  1  0  0  0  0
  3 35  1  0  0  0  0
 27  4  1  6  0  0  0
  4 45  1  0  0  0  0
 31  5  1  1  0  0  0
  5 43  1  0  0  0  0
 28  6  1  6  0  0  0
  6 87  1  0  0  0  0
 32  7  1  1  0  0  0
  7 89  1  0  0  0  0
 33  8  1  1  0  0  0
  8 94  1  0  0  0  0
 34  9  1  6  0  0  0
  9 95  1  0  0  0  0
 10 36  1  0  0  0  0
 10 49  1  0  0  0  0
 11 41  1  0  0  0  0
 11 42  1  0  0  0  0
 41 12  1  6  0  0  0
 47 12  1  1  0  0  0
 38 13  1  6  0  0  0
 13106  1  0  0  0  0
 39 14  1  1  0  0  0
 14108  1  0  0  0  0
 40 15  1  1  0  0  0
 15107  1  0  0  0  0
 16 47  1  0  0  0  0
 16 54  1  0  0  0  0
 17 45  2  0  0  0  0
 18 51  1  0  0  0  0
 18112  1  0  0  0  0
 19 49  2  0  0  0  0
 20 57  1  0  0  0  0
 20 68  1  0  0  0  0
 21 57  2  0  0  0  0
 22 62  1  0  0  0  0
 22125  1  0  0  0  0
 23 65  1  0  0  0  0
 23127  1  0  0  0  0
 24 69  1  0  0  0  0
 24128  1  0  0  0  0
 25 71  1  0  0  0  0
 25129  1  0  0  0  0
 26 27  1  0  0  0  0
 26 28  1  0  0  0  0
 26 72  1  0  0  0  0
 27 29  1  0  0  0  0
 27 73  1  0  0  0  0
 28 31  1  0  0  0  0
 28 74  1  0  0  0  0
 29 36  1  1  0  0  0
 29 75  1  0  0  0  0
 30 32  1  0  0  0  0
 30 76  1  0  0  0  0
 31 77  1  0  0  0  0
 32 33  1  0  0  0  0
 32 78  1  0  0  0  0
 33 34  1  0  0  0  0
 33 79  1  0  0  0  0
 34 35  1  0  0  0  0
 34 80  1  0  0  0  0
 35 37  1  1  0  0  0
 35 81  1  0  0  0  0
 36 82  1  0  0  0  0
 36 83  1  0  0  0  0
 37 84  1  0  0  0  0
 37 85  1  0  0  0  0
 37 86  1  0  0  0  0
 38 39  1  0  0  0  0
 38 40  1  0  0  0  0
 38 88  1  0  0  0  0
 39 41  1  0  0  0  0
 39 90  1  0  0  0  0
 40 42  1  0  0  0  0
 40 91  1  0  0  0  0
 41 92  1  0  0  0  0
 42 51  1  6  0  0  0
 42 93  1  0  0  0  0
 43 50  1  0  0  0  0
 43 96  1  0  0  0  0
 43 97  1  0  0  0  0
 44 46  1  6  0  0  0
 44 48  1  0  0  0  0
 44 52  1  0  0  0  0
 44 98  1  0  0  0  0
 45 53  1  0  0  0  0
 46 49  1  0  0  0  0
 46 99  1  0  0  0  0
 46100  1  0  0  0  0
 47 48  1  0  0  0  0
 47101  1  0  0  0  0
 48 55  2  0  0  0  0
 50 56  1  0  0  0  0
 50102  1  0  0  0  0
 50103  1  0  0  0  0
 51104  1  0  0  0  0
 51105  1  0  0  0  0
 52 54  2  0  0  0  0
 52 57  1  0  0  0  0
 53 59  2  0  0  0  0
 53109  1  0  0  0  0
 54110  1  0  0  0  0
 55 58  1  0  0  0  0
 55111  1  0  0  0  0
 56 60  2  0  0  0  0
 56 61  1  0  0  0  0
 58113  1  0  0  0  0
 58114  1  0  0  0  0
 58115  1  0  0  0  0
 59 63  1  0  0  0  0
 59116  1  0  0  0  0
 60 62  1  0  0  0  0
 60117  1  0  0  0  0
 61 64  2  0  0  0  0
 61118  1  0  0  0  0
 62 65  2  0  0  0  0
 63 66  2  0  0  0  0
 63 67  1  0  0  0  0
 64 65  1  0  0  0  0
 64119  1  0  0  0  0
 66 69  1  0  0  0  0
 66120  1  0  0  0  0
 67 70  2  0  0  0  0
 67121  1  0  0  0  0
 68122  1  0  0  0  0
 68123  1  0  0  0  0
 68124  1  0  0  0  0
 69 71  2  0  0  0  0
 70 71  1  0  0  0  0
 70126  1  0  0  0  0
M  END
> <PUBCHEM_COMPOUND_CID>
11051372

> <PUBCHEM_COMPOUND_CANONICALIZED>
1

> <PUBCHEM_CACTVS_COMPLEXITY>
1850

> <PUBCHEM_CACTVS_HBOND_ACCEPTOR>
25

> <PUBCHEM_CACTVS_HBOND_DONOR>
12

> <PUBCHEM_CACTVS_ROTATABLE_BOND>
20

> <PUBCHEM_CACTVS_SUBSKEYS>
AAADcfB8PgAAAAAAAAAAAAAAAAAAAAAAAAA0aJECAAAAAAABQAAAGgAACAAADRSwmAMyDoAABgCIAiDSCAACCAAgIAAIiAEGiMgZNjKCMRKicAElwBEPuYfI5rwOIAABAAAAQABAAAIAAACAAAAAAAAAAA==

> <PUBCHEM_IUPAC_OPENEYE_NAME>
methyl (4S,5E,6S)-4-[2-[[(2R,3R,4R,5R,6R)-6-[2-(3,4-dihydroxyphenyl)ethoxy]-3-[(E)-3-(3,4-dihydroxyphenyl)prop-2-enoyl]oxy-5-hydroxy-4-[(2S,3R,4R,5R,6S)-3,4,5-trihydroxy-6-methyl-tetrahydropyran-2-yl]oxy-tetrahydropyran-2-yl]methoxy]-2-oxo-ethyl]-5-ethylidene-6-[(2S,3R,4S,5S,6R)-3,4,5-trihydroxy-6-(hydroxymethyl)tetrahydropyran-2-yl]oxy-4H-pyran-3-carboxylate

> <PUBCHEM_IUPAC_CAS_NAME>
(4S,5E,6S)-4-[2-[[(2R,3R,4R,5R,6R)-6-[2-(3,4-dihydroxyphenyl)ethoxy]-3-[(E)-3-(3,4-dihydroxyphenyl)-1-oxoprop-2-enoxy]-5-hydroxy-4-[[(2S,3R,4R,5R,6S)-3,4,5-trihydroxy-6-methyl-2-oxanyl]oxy]-2-oxanyl]methoxy]-2-oxoethyl]-5-ethylidene-6-[[(2S,3R,4S,5S,6R)-3,4,5-trihydroxy-6-(hydroxymethyl)-2-oxanyl]oxy]-4H-pyran-3-carboxylic acid methyl ester

> <PUBCHEM_IUPAC_NAME_MARKUP>
methyl (4<I>S</I>,5<I>E</I>,6<I>S</I>)-4-[2-[[(2<I>R</I>,3<I>R</I>,4<I>R</I>,5<I>R</I>,6<I>R</I>)-6-[2-(3,4-dihydroxyphenyl)ethoxy]-3-[(<I>E</I>)-3-(3,4-dihydroxyphenyl)prop-2-enoyl]oxy-5-hydroxy-4-[(2<I>S</I>,3<I>R</I>,4<I>R</I>,5<I>R</I>,6<I>S</I>)-3,4,5-trihydroxy-6-methyloxan-2-yl]oxyoxan-2-yl]methoxy]-2-oxoethyl]-5-ethylidene-6-[(2<I>S</I>,3<I>R</I>,4<I>S</I>,5<I>S</I>,6<I>R</I>)-3,4,5-trihydroxy-6-(hydroxymethyl)oxan-2-yl]oxy-4<I>H</I>-pyran-3-carboxylate

> <PUBCHEM_IUPAC_NAME>
methyl (4S,5E,6S)-4-[2-[[(2R,3R,4R,5R,6R)-6-[2-(3,4-dihydroxyphenyl)ethoxy]-3-[(E)-3-(3,4-dihydroxyphenyl)prop-2-enoyl]oxy-5-hydroxy-4-[(2S,3R,4R,5R,6S)-3,4,5-trihydroxy-6-methyloxan-2-yl]oxyoxan-2-yl]methoxy]-2-oxoethyl]-5-ethylidene-6-[(2S,3R,4S,5S,6R)-3,4,5-trihydroxy-6-(hydroxymethyl)oxan-2-yl]oxy-4H-pyran-3-carboxylate

> <PUBCHEM_IUPAC_SYSTEMATIC_NAME>
methyl (4S,5E,6S)-4-[2-[[(2R,3R,4R,5R,6R)-6-[2-[3,4-bis(oxidanyl)phenyl]ethoxy]-3-[(E)-3-[3,4-bis(oxidanyl)phenyl]prop-2-enoyl]oxy-4-[(2S,3R,4R,5R,6S)-6-methyl-3,4,5-tris(oxidanyl)oxan-2-yl]oxy-5-oxidanyl-oxan-2-yl]methoxy]-2-oxidanylidene-ethyl]-5-ethylidene-6-[(2S,3R,4S,5S,6R)-6-(hydroxymethyl)-3,4,5-tris(oxidanyl)oxan-2-yl]oxy-4H-pyran-3-carboxylate

> <PUBCHEM_IUPAC_TRADITIONAL_NAME>
(4S,5E,6S)-4-[2-[[(2R,3R,4R,5R,6R)-3-[(E)-3-(3,4-dihydroxyphenyl)acryloyl]oxy-6-[2-(3,4-dihydroxyphenyl)ethoxy]-5-hydroxy-4-[(2S,3R,4R,5R,6S)-3,4,5-trihydroxy-6-methyl-tetrahydropyran-2-yl]oxy-tetrahydropyran-2-yl]methoxy]-2-keto-ethyl]-5-ethylidene-6-[(2S,3R,4S,5S,6R)-3,4,5-trihydroxy-6-methylol-tetrahydropyran-2-yl]oxy-4H-pyran-3-carboxylic acid methyl ester

> <PUBCHEM_IUPAC_INCHI>
InChI=1S/C46H58O25/c1-4-22-23(24(42(61)62-3)17-65-43(22)71-46-38(59)36(57)34(55)29(16-47)67-46)15-32(53)64-18-30-40(69-31(52)10-7-20-5-8-25(48)27(50)13-20)41(70-45-37(58)35(56)33(54)19(2)66-45)39(60)44(68-30)63-12-11-21-6-9-26(49)28(51)14-21/h4-10,13-14,17,19,23,29-30,33-41,43-51,54-60H,11-12,15-16,18H2,1-3H3/b10-7+,22-4+/t19-,23-,29+,30+,33-,34+,35+,36-,37+,38+,39+,40+,41+,43-,44+,45-,46-/m0/s1

> <PUBCHEM_IUPAC_INCHIKEY>
NJIBYWMHTBDPCP-UNLHVXOPSA-N

> <PUBCHEM_XLOGP3_AA>
-1.7

> <PUBCHEM_EXACT_MASS>
1010.326717

> <PUBCHEM_MOLECULAR_FORMULA>
C46H58O25

> <PUBCHEM_MOLECULAR_WEIGHT>
1010.9

> <PUBCHEM_OPENEYE_CAN_SMILES>
CC=C1C(C(=COC1OC2C(C(C(C(O2)CO)O)O)O)C(=O)OC)CC(=O)OCC3C(C(C(C(O3)OCCC4=CC(=C(C=C4)O)O)O)OC5C(C(C(C(O5)C)O)O)O)OC(=O)C=CC6=CC(=C(C=C6)O)O

> <PUBCHEM_OPENEYE_ISO_SMILES>
C/C=C/1\[C@@H](C(=CO[C@H]1O[C@H]2[C@@H]([C@H]([C@@H]([C@H](O2)CO)O)O)O)C(=O)OC)CC(=O)OC[C@@H]3[C@H]([C@@H]([C@H]([C@@H](O3)OCCC4=CC(=C(C=C4)O)O)O)O[C@H]5[C@@H]([C@@H]([C@H]([C@@H](O5)C)O)O)O)OC(=O)/C=C/C6=CC(=C(C=C6)O)O

> <PUBCHEM_CACTVS_TPSA>
386

> <PUBCHEM_MONOISOTOPIC_WEIGHT>
1010.326717

> <PUBCHEM_TOTAL_CHARGE>
0

> <PUBCHEM_HEAVY_ATOM_COUNT>
71

> <PUBCHEM_ATOM_DEF_STEREO_COUNT>
17

> <PUBCHEM_ATOM_UDEF_STEREO_COUNT>
0

> <PUBCHEM_BOND_DEF_STEREO_COUNT>
2

> <PUBCHEM_BOND_UDEF_STEREO_COUNT>
0

> <PUBCHEM_ISOTOPIC_ATOM_COUNT>
0

> <PUBCHEM_COMPONENT_COUNT>
1

> <PUBCHEM_CACTVS_TAUTO_COUNT>
-1

> <PUBCHEM_COORDINATE_TYPE>
1
5
255

> <PUBCHEM_BONDANNOTATIONS>
26  1  5
30  1  6
41  12  6
47  12  5
38  13  6
39  14  5
40  15  5
29  36  5
35  37  5
27  4  6
42  51  6
44  46  6
31  5  5
56  60  8
56  61  8
28  6  6
60  62  8
61  64  8
62  65  8
63  66  8
63  67  8
64  65  8
66  69  8
67  70  8
69  71  8
32  7  5
70  71  8
33  8  5
34  9  6

$$$$
