10581755
  -OEChem-08262005462D

131135  0     1  0  0  0  0  0999 V2000
   14.3554    1.9248    0.0000 O   0  0  0  0  0  0  0  0  0  0  0  0
   10.2267    0.6688    0.0000 O   0  0  0  0  0  0  0  0  0  0  0  0
   13.0833    4.5521    0.0000 O   0  0  0  0  0  0  0  0  0  0  0  0
   15.1147    0.3680    0.0000 O   0  0  0  0  0  0  0  0  0  0  0  0
    8.8999    1.7822    0.0000 O   0  0  0  0  0  0  0  0  0  0  0  0
   19.0668    2.1175    0.0000 O   0  0  0  0  0  0  0  0  0  0  0  0
   18.8857    3.8401    0.0000 O   0  0  0  0  0  0  0  0  0  0  0  0
    6.0010   -1.4236    0.0000 O   0  0  0  0  0  0  0  0  0  0  0  0
    6.8671   -2.9236    0.0000 O   0  0  0  0  0  0  0  0  0  0  0  0
   20.4680    3.1356    0.0000 O   0  0  0  0  0  0  0  0  0  0  0  0
    5.1350   -2.9236    0.0000 O   0  0  0  0  0  0  0  0  0  0  0  0
   17.8466   -0.6231    0.0000 O   0  0  0  0  0  0  0  0  0  0  0  0
   19.6992    5.6672    0.0000 O   0  0  0  0  0  0  0  0  0  0  0  0
   16.2643    0.0814    0.0000 O   0  0  0  0  0  0  0  0  0  0  0  0
   21.6883    5.8762    0.0000 O   0  0  0  0  0  0  0  0  0  0  0  0
   22.8638    4.2582    0.0000 O   0  0  0  0  0  0  0  0  0  0  0  0
    6.8671   -4.9236    0.0000 O   0  0  0  0  0  0  0  0  0  0  0  0
    6.0010    1.5764    0.0000 O   0  0  0  0  0  0  0  0  0  0  0  0
    5.1350   -5.9236    0.0000 O   0  0  0  0  0  0  0  0  0  0  0  0
    3.4030   -4.9236    0.0000 O   0  0  0  0  0  0  0  0  0  0  0  0
    7.2091    2.0161    0.0000 O   0  0  0  0  0  0  0  0  0  0  0  0
   23.0449    2.5356    0.0000 O   0  0  0  0  0  0  0  0  0  0  0  0
    2.5369   -3.4236    0.0000 O   0  0  0  0  0  0  0  0  0  0  0  0
   12.5736    1.9559    0.0000 C   0  0  1  0  0  0  0  0  0  0  0  0
   11.8543    1.2612    0.0000 C   0  0  1  0  0  0  0  0  0  0  0  0
   12.2927    0.3624    0.0000 C   0  0  2  0  0  0  0  0  0  0  0  0
   13.4566    1.4864    0.0000 C   0  0  2  0  0  0  0  0  0  0  0  0
   13.2829    0.5016    0.0000 C   0  0  0  0  0  0  0  0  0  0  0  0
   12.4345    2.9461    0.0000 C   0  0  2  0  0  0  0  0  0  0  0  0
   10.8695    1.4349    0.0000 C   0  0  0  0  0  0  0  0  0  0  0  0
   11.8232   -0.5205    0.0000 C   0  0  0  0  0  0  0  0  0  0  0  0
   13.2225    3.5618    0.0000 C   0  0  0  0  0  0  0  0  0  0  0  0
   11.5073    3.3207    0.0000 C   0  0  0  0  0  0  0  0  0  0  0  0
   15.1844    1.3656    0.0000 C   0  0  0  0  0  0  0  0  0  0  0  0
   16.0832    1.8040    0.0000 C   0  0  0  0  0  0  0  0  0  0  0  0
    9.2419    0.8425    0.0000 C   0  0  0  0  0  0  0  0  0  0  0  0
   17.0777    1.9085    0.0000 C   0  0  1  0  0  0  0  0  0  0  0  0
    8.5991    0.0764    0.0000 C   0  0  0  0  0  0  0  0  0  0  0  0
    7.7331   -0.4236    0.0000 C   0  0  1  0  0  0  0  0  0  0  0  0
   17.4845    2.8220    0.0000 C   0  0  0  0  0  0  0  0  0  0  0  0
   17.6655    1.0995    0.0000 C   0  0  0  0  0  0  0  0  0  0  0  0
   18.4790    2.9266    0.0000 C   0  0  1  0  0  0  0  0  0  0  0  0
    7.7331   -1.4236    0.0000 C   0  0  0  0  0  0  0  0  0  0  0  0
    6.8671    0.0764    0.0000 C   0  0  0  0  0  0  0  0  0  0  0  0
   18.6600    1.2040    0.0000 C   0  0  0  0  0  0  0  0  0  0  0  0
    6.8671   -1.9236    0.0000 C   0  0  1  0  0  0  0  0  0  0  0  0
   16.8967    3.6310    0.0000 C   0  0  0  0  0  0  0  0  0  0  0  0
   17.2589    0.1860    0.0000 C   0  0  0  0  0  0  0  0  0  0  0  0
   19.8803    3.9446    0.0000 C   0  0  2  0  0  0  0  0  0  0  0  0
   20.2870    4.8582    0.0000 C   0  0  1  0  0  0  0  0  0  0  0  0
    6.0010   -0.4236    0.0000 C   0  0  0  0  0  0  0  0  0  0  0  0
    8.5991   -1.9236    0.0000 C   0  0  0  0  0  0  0  0  0  0  0  0
   21.2815    4.9627    0.0000 C   0  0  2  0  0  0  0  0  0  0  0  0
    6.0010   -3.4236    0.0000 C   0  0  2  0  0  0  0  0  0  0  0  0
   21.8693    4.1537    0.0000 C   0  0  1  0  0  0  0  0  0  0  0  0
   21.4626    3.2401    0.0000 C   0  0  1  0  0  0  0  0  0  0  0  0
    6.0010   -4.4236    0.0000 C   0  0  1  0  0  0  0  0  0  0  0  0
    5.1350   -4.9236    0.0000 C   0  0  2  0  0  0  0  0  0  0  0  0
    6.8671    1.0764    0.0000 C   0  0  0  0  0  0  0  0  0  0  0  0
    4.2690   -4.4236    0.0000 C   0  0  1  0  0  0  0  0  0  0  0  0
   15.9022    3.5265    0.0000 C   0  0  0  0  0  0  0  0  0  0  0  0
    4.2690   -3.4236    0.0000 C   0  0  1  0  0  0  0  0  0  0  0  0
    9.4651   -1.4236    0.0000 C   0  0  0  0  0  0  0  0  0  0  0  0
   22.0503    2.4311    0.0000 C   0  0  0  0  0  0  0  0  0  0  0  0
    3.4030   -2.9236    0.0000 C   0  0  0  0  0  0  0  0  0  0  0  0
   18.8411   -0.5186    0.0000 C   0  0  0  0  0  0  0  0  0  0  0  0
    6.0010    2.5764    0.0000 C   0  0  0  0  0  0  0  0  0  0  0  0
   11.7700    2.2326    0.0000 H   0  0  0  0  0  0  0  0  0  0  0  0
   11.4812    0.7661    0.0000 H   0  0  0  0  0  0  0  0  0  0  0  0
   12.6483   -0.1455    0.0000 H   0  0  0  0  0  0  0  0  0  0  0  0
   13.4674    2.1063    0.0000 H   0  0  0  0  0  0  0  0  0  0  0  0
   13.3046   -0.1180    0.0000 H   0  0  0  0  0  0  0  0  0  0  0  0
   13.9014    0.4583    0.0000 H   0  0  0  0  0  0  0  0  0  0  0  0
   12.3482    3.5601    0.0000 H   0  0  0  0  0  0  0  0  0  0  0  0
   11.0815    2.0175    0.0000 H   0  0  0  0  0  0  0  0  0  0  0  0
   10.3326    1.7449    0.0000 H   0  0  0  0  0  0  0  0  0  0  0  0
   11.2758   -0.2295    0.0000 H   0  0  0  0  0  0  0  0  0  0  0  0
   11.5321   -1.0680    0.0000 H   0  0  0  0  0  0  0  0  0  0  0  0
   12.3706   -0.8116    0.0000 H   0  0  0  0  0  0  0  0  0  0  0  0
   13.5136    3.0144    0.0000 H   0  0  0  0  0  0  0  0  0  0  0  0
   13.8121    3.7534    0.0000 H   0  0  0  0  0  0  0  0  0  0  0  0
   11.7395    3.8956    0.0000 H   0  0  0  0  0  0  0  0  0  0  0  0
   10.9324    3.5530    0.0000 H   0  0  0  0  0  0  0  0  0  0  0  0
   11.2750    2.7459    0.0000 H   0  0  0  0  0  0  0  0  0  0  0  0
   13.5719    4.9338    0.0000 H   0  0  0  0  0  0  0  0  0  0  0  0
   16.2679    2.3958    0.0000 H   0  0  0  0  0  0  0  0  0  0  0  0
   16.2541    1.2080    0.0000 H   0  0  0  0  0  0  0  0  0  0  0  0
   16.8256    1.3421    0.0000 H   0  0  0  0  0  0  0  0  0  0  0  0
    8.6711   -0.5394    0.0000 H   0  0  0  0  0  0  0  0  0  0  0  0
    8.2006    0.5514    0.0000 H   0  0  0  0  0  0  0  0  0  0  0  0
    8.2700   -0.7336    0.0000 H   0  0  0  0  0  0  0  0  0  0  0  0
   18.1146    3.4281    0.0000 H   0  0  0  0  0  0  0  0  0  0  0  0
   19.0245    0.7024    0.0000 H   0  0  0  0  0  0  0  0  0  0  0  0
    7.4040   -2.2336    0.0000 H   0  0  0  0  0  0  0  0  0  0  0  0
   17.1489    4.1974    0.0000 H   0  0  0  0  0  0  0  0  0  0  0  0
   19.6281    3.3782    0.0000 H   0  0  0  0  0  0  0  0  0  0  0  0
   20.5392    5.4246    0.0000 H   0  0  0  0  0  0  0  0  0  0  0  0
    5.4641   -0.1136    0.0000 H   0  0  0  0  0  0  0  0  0  0  0  0
   21.8981    5.0275    0.0000 H   0  0  0  0  0  0  0  0  0  0  0  0
    8.5991   -2.5436    0.0000 H   0  0  0  0  0  0  0  0  0  0  0  0
    6.0010   -2.8036    0.0000 H   0  0  0  0  0  0  0  0  0  0  0  0
   22.2337    3.6521    0.0000 H   0  0  0  0  0  0  0  0  0  0  0  0
   21.2104    2.6737    0.0000 H   0  0  0  0  0  0  0  0  0  0  0  0
    6.0010   -5.0436    0.0000 H   0  0  0  0  0  0  0  0  0  0  0  0
    4.5981   -5.2336    0.0000 H   0  0  0  0  0  0  0  0  0  0  0  0
    4.2690   -5.0436    0.0000 H   0  0  0  0  0  0  0  0  0  0  0  0
    4.2690   -2.8036    0.0000 H   0  0  0  0  0  0  0  0  0  0  0  0
   15.8374    4.1431    0.0000 H   0  0  0  0  0  0  0  0  0  0  0  0
   15.2856    3.4617    0.0000 H   0  0  0  0  0  0  0  0  0  0  0  0
   15.9670    2.9099    0.0000 H   0  0  0  0  0  0  0  0  0  0  0  0
   21.4931    2.1593    0.0000 H   0  0  0  0  0  0  0  0  0  0  0  0
   22.2212    1.8351    0.0000 H   0  0  0  0  0  0  0  0  0  0  0  0
    9.7751   -1.9605    0.0000 H   0  0  0  0  0  0  0  0  0  0  0  0
   10.0021   -1.1136    0.0000 H   0  0  0  0  0  0  0  0  0  0  0  0
    9.1551   -0.8866    0.0000 H   0  0  0  0  0  0  0  0  0  0  0  0
    3.8015   -2.4486    0.0000 H   0  0  0  0  0  0  0  0  0  0  0  0
    3.0044   -2.4486    0.0000 H   0  0  0  0  0  0  0  0  0  0  0  0
   19.9514    6.2336    0.0000 H   0  0  0  0  0  0  0  0  0  0  0  0
   22.3049    5.9410    0.0000 H   0  0  0  0  0  0  0  0  0  0  0  0
   23.1160    4.8246    0.0000 H   0  0  0  0  0  0  0  0  0  0  0  0
    7.4040   -4.6136    0.0000 H   0  0  0  0  0  0  0  0  0  0  0  0
    5.6720   -6.2336    0.0000 H   0  0  0  0  0  0  0  0  0  0  0  0
    3.4030   -5.5436    0.0000 H   0  0  0  0  0  0  0  0  0  0  0  0
   18.9059   -1.1352    0.0000 H   0  0  0  0  0  0  0  0  0  0  0  0
   19.4577   -0.4538    0.0000 H   0  0  0  0  0  0  0  0  0  0  0  0
   18.7763    0.0980    0.0000 H   0  0  0  0  0  0  0  0  0  0  0  0
   23.4093    2.0340    0.0000 H   0  0  0  0  0  0  0  0  0  0  0  0
    2.0000   -3.1136    0.0000 H   0  0  0  0  0  0  0  0  0  0  0  0
    6.6210    2.5764    0.0000 H   0  0  0  0  0  0  0  0  0  0  0  0
    6.0010    3.1964    0.0000 H   0  0  0  0  0  0  0  0  0  0  0  0
    5.3810    2.5764    0.0000 H   0  0  0  0  0  0  0  0  0  0  0  0
 27  1  1  1  0  0  0
  1 34  1  0  0  0  0
  2 30  1  0  0  0  0
  2 36  1  0  0  0  0
  3 32  1  0  0  0  0
  3 85  1  0  0  0  0
  4 34  2  0  0  0  0
  5 36  2  0  0  0  0
  6 42  1  0  0  0  0
  6 45  1  0  0  0  0
 42  7  1  6  0  0  0
 49  7  1  1  0  0  0
  8 46  1  0  0  0  0
  8 51  1  0  0  0  0
 46  9  1  6  0  0  0
 54  9  1  1  0  0  0
 10 49  1  0  0  0  0
 10 56  1  0  0  0  0
 11 54  1  0  0  0  0
 11 62  1  0  0  0  0
 12 48  1  0  0  0  0
 12 66  1  0  0  0  0
 50 13  1  6  0  0  0
 13118  1  0  0  0  0
 14 48  2  0  0  0  0
 53 15  1  1  0  0  0
 15119  1  0  0  0  0
 55 16  1  6  0  0  0
 16120  1  0  0  0  0
 57 17  1  6  0  0  0
 17121  1  0  0  0  0
 18 59  1  0  0  0  0
 18 67  1  0  0  0  0
 58 19  1  1  0  0  0
 19122  1  0  0  0  0
 60 20  1  6  0  0  0
 20123  1  0  0  0  0
 21 59  2  0  0  0  0
 22 64  1  0  0  0  0
 22127  1  0  0  0  0
 23 65  1  0  0  0  0
 23128  1  0  0  0  0
 24 25  1  0  0  0  0
 24 27  1  0  0  0  0
 24 29  1  0  0  0  0
 24 68  1  1  0  0  0
 25 26  1  0  0  0  0
 25 30  1  1  0  0  0
 25 69  1  0  0  0  0
 26 28  1  0  0  0  0
 26 31  1  6  0  0  0
 26 70  1  0  0  0  0
 27 28  1  0  0  0  0
 27 71  1  0  0  0  0
 28 72  1  0  0  0  0
 28 73  1  0  0  0  0
 29 32  1  0  0  0  0
 29 33  1  1  0  0  0
 29 74  1  0  0  0  0
 30 75  1  0  0  0  0
 30 76  1  0  0  0  0
 31 77  1  0  0  0  0
 31 78  1  0  0  0  0
 31 79  1  0  0  0  0
 32 80  1  0  0  0  0
 32 81  1  0  0  0  0
 33 82  1  0  0  0  0
 33 83  1  0  0  0  0
 33 84  1  0  0  0  0
 34 35  1  0  0  0  0
 37 35  1  1  0  0  0
 35 86  1  0  0  0  0
 35 87  1  0  0  0  0
 36 38  1  0  0  0  0
 37 40  1  0  0  0  0
 37 41  1  0  0  0  0
 37 88  1  0  0  0  0
 39 38  1  1  0  0  0
 38 89  1  0  0  0  0
 38 90  1  0  0  0  0
 39 43  1  0  0  0  0
 39 44  1  0  0  0  0
 39 91  1  0  0  0  0
 40 42  1  0  0  0  0
 40 47  2  0  0  0  0
 41 45  2  0  0  0  0
 41 48  1  0  0  0  0
 42 92  1  0  0  0  0
 43 46  1  0  0  0  0
 43 52  2  0  0  0  0
 44 51  2  0  0  0  0
 44 59  1  0  0  0  0
 45 93  1  0  0  0  0
 46 94  1  0  0  0  0
 47 61  1  0  0  0  0
 47 95  1  0  0  0  0
 49 50  1  0  0  0  0
 49 96  1  0  0  0  0
 50 53  1  0  0  0  0
 50 97  1  0  0  0  0
 51 98  1  0  0  0  0
 52 63  1  0  0  0  0
 52100  1  0  0  0  0
 53 55  1  0  0  0  0
 53 99  1  0  0  0  0
 54 57  1  0  0  0  0
 54101  1  0  0  0  0
 55 56  1  0  0  0  0
 55102  1  0  0  0  0
 56 64  1  1  0  0  0
 56103  1  0  0  0  0
 57 58  1  0  0  0  0
 57104  1  0  0  0  0
 58 60  1  0  0  0  0
 58105  1  0  0  0  0
 60 62  1  0  0  0  0
 60106  1  0  0  0  0
 61108  1  0  0  0  0
 61109  1  0  0  0  0
 61110  1  0  0  0  0
 62 65  1  1  0  0  0
 62107  1  0  0  0  0
 63113  1  0  0  0  0
 63114  1  0  0  0  0
 63115  1  0  0  0  0
 64111  1  0  0  0  0
 64112  1  0  0  0  0
 65116  1  0  0  0  0
 65117  1  0  0  0  0
 66124  1  0  0  0  0
 66125  1  0  0  0  0
 66126  1  0  0  0  0
 67129  1  0  0  0  0
 67130  1  0  0  0  0
 67131  1  0  0  0  0
M  END
> <PUBCHEM_COMPOUND_CID>
10581755

> <PUBCHEM_COMPOUND_CANONICALIZED>
1

> <PUBCHEM_CACTVS_COMPLEXITY>
1850

> <PUBCHEM_CACTVS_HBOND_ACCEPTOR>
23

> <PUBCHEM_CACTVS_HBOND_DONOR>
9

> <PUBCHEM_CACTVS_ROTATABLE_BOND>
21

> <PUBCHEM_CACTVS_SUBSKEYS>
AAADcfB8PgAAAAAAAAAAAAAAAAAAAYAAAAAkSIEAAAAAAAAAAAAAGgAACAAADRSwgAMCCAAABgCIAiDSCAAACAAgIAAACAEAAEgRFBIAIQAiUAAFgAAPIIPI5vwOgAAAAAAAAAAAAAAAAAAAAYAADAAAAA==

> <PUBCHEM_IUPAC_OPENEYE_NAME>
methyl (4S,5E,6S)-5-ethylidene-4-[2-[[(1R,2S,3S,5S)-3-[2-[(2S,3E,4S)-3-ethylidene-5-methoxycarbonyl-2-[(2S,3R,4S,5S,6R)-3,4,5-trihydroxy-6-(hydroxymethyl)tetrahydropyran-2-yl]oxy-4H-pyran-4-yl]acetyl]oxy-2-[(1R)-2-hydroxy-1-methyl-ethyl]-5-methyl-cyclopentyl]methoxy]-2-oxo-ethyl]-6-[(2S,3R,4S,5S,6R)-3,4,5-trihydroxy-6-(hydroxymethyl)tetrahydropyran-2-yl]oxy-4H-pyran-3-carboxylate

> <PUBCHEM_IUPAC_CAS_NAME>
(4S,5E,6S)-5-ethylidene-4-[2-[[(1R,2S,3S,5S)-3-[2-[(2S,3E,4S)-3-ethylidene-5-methoxycarbonyl-2-[[(2S,3R,4S,5S,6R)-3,4,5-trihydroxy-6-(hydroxymethyl)-2-oxanyl]oxy]-4H-pyran-4-yl]-1-oxoethoxy]-2-[(2R)-1-hydroxypropan-2-yl]-5-methylcyclopentyl]methoxy]-2-oxoethyl]-6-[[(2S,3R,4S,5S,6R)-3,4,5-trihydroxy-6-(hydroxymethyl)-2-oxanyl]oxy]-4H-pyran-3-carboxylic acid methyl ester

> <PUBCHEM_IUPAC_NAME_MARKUP>
methyl (4<I>S</I>,5<I>E</I>,6<I>S</I>)-5-ethylidene-4-[2-[[(1<I>R</I>,2<I>S</I>,3<I>S</I>,5<I>S</I>)-3-[2-[(2<I>S</I>,3<I>E</I>,4<I>S</I>)-3-ethylidene-5-methoxycarbonyl-2-[(2<I>S</I>,3<I>R</I>,4<I>S</I>,5<I>S</I>,6<I>R</I>)-3,4,5-trihydroxy-6-(hydroxymethyl)oxan-2-yl]oxy-4<I>H</I>-pyran-4-yl]acetyl]oxy-2-[(2<I>R</I>)-1-hydroxypropan-2-yl]-5-methylcyclopentyl]methoxy]-2-oxoethyl]-6-[(2<I>S</I>,3<I>R</I>,4<I>S</I>,5<I>S</I>,6<I>R</I>)-3,4,5-trihydroxy-6-(hydroxymethyl)oxan-2-yl]oxy-4<I>H</I>-pyran-3-carboxylate

> <PUBCHEM_IUPAC_NAME>
methyl (4S,5E,6S)-5-ethylidene-4-[2-[[(1R,2S,3S,5S)-3-[2-[(2S,3E,4S)-3-ethylidene-5-methoxycarbonyl-2-[(2S,3R,4S,5S,6R)-3,4,5-trihydroxy-6-(hydroxymethyl)oxan-2-yl]oxy-4H-pyran-4-yl]acetyl]oxy-2-[(2R)-1-hydroxypropan-2-yl]-5-methylcyclopentyl]methoxy]-2-oxoethyl]-6-[(2S,3R,4S,5S,6R)-3,4,5-trihydroxy-6-(hydroxymethyl)oxan-2-yl]oxy-4H-pyran-3-carboxylate

> <PUBCHEM_IUPAC_SYSTEMATIC_NAME>
methyl (4S,5E,6S)-5-ethylidene-4-[2-[[(1R,2S,3S,5S)-3-[2-[(2S,3E,4S)-3-ethylidene-2-[(2S,3R,4S,5S,6R)-6-(hydroxymethyl)-3,4,5-tris(oxidanyl)oxan-2-yl]oxy-5-methoxycarbonyl-4H-pyran-4-yl]ethanoyloxy]-5-methyl-2-[(2R)-1-oxidanylpropan-2-yl]cyclopentyl]methoxy]-2-oxidanylidene-ethyl]-6-[(2S,3R,4S,5S,6R)-6-(hydroxymethyl)-3,4,5-tris(oxidanyl)oxan-2-yl]oxy-4H-pyran-3-carboxylate

> <PUBCHEM_IUPAC_TRADITIONAL_NAME>
(4S,5E,6S)-4-[2-[[(1R,2S,3S,5S)-3-[2-[(2S,3E,4S)-5-carbomethoxy-3-ethylidene-2-[(2S,3R,4S,5S,6R)-3,4,5-trihydroxy-6-methylol-tetrahydropyran-2-yl]oxy-4H-pyran-4-yl]acetyl]oxy-2-[(1R)-2-hydroxy-1-methyl-ethyl]-5-methyl-cyclopentyl]methoxy]-2-keto-ethyl]-5-ethylidene-6-[(2S,3R,4S,5S,6R)-3,4,5-trihydroxy-6-methylol-tetrahydropyran-2-yl]oxy-4H-pyran-3-carboxylic acid methyl ester

> <PUBCHEM_IUPAC_INCHI>
InChI=1S/C44H64O23/c1-7-20-22(25(39(56)58-5)16-61-41(20)66-43-37(54)35(52)33(50)28(13-46)64-43)10-30(48)60-15-24-18(3)9-27(32(24)19(4)12-45)63-31(49)11-23-21(8-2)42(62-17-26(23)40(57)59-6)67-44-38(55)36(53)34(51)29(14-47)65-44/h7-8,16-19,22-24,27-29,32-38,41-47,50-55H,9-15H2,1-6H3/b20-7+,21-8+/t18-,19-,22-,23-,24+,27-,28+,29+,32-,33+,34+,35-,36-,37+,38+,41-,42-,43-,44-/m0/s1

> <PUBCHEM_IUPAC_INCHIKEY>
VCJYHQPAJJKWLH-VMTDYQMDSA-N

> <PUBCHEM_XLOGP3_AA>
-2

> <PUBCHEM_EXACT_MASS>
960.383838

> <PUBCHEM_MOLECULAR_FORMULA>
C44H64O23

> <PUBCHEM_MOLECULAR_WEIGHT>
961

> <PUBCHEM_OPENEYE_CAN_SMILES>
CC=C1C(C(=COC1OC2C(C(C(C(O2)CO)O)O)O)C(=O)OC)CC(=O)OCC3C(CC(C3C(C)CO)OC(=O)CC4C(=COC(C4=CC)OC5C(C(C(C(O5)CO)O)O)O)C(=O)OC)C

> <PUBCHEM_OPENEYE_ISO_SMILES>
C/C=C/1\[C@@H](C(=CO[C@H]1O[C@H]2[C@@H]([C@H]([C@@H]([C@H](O2)CO)O)O)O)C(=O)OC)CC(=O)OC[C@@H]3[C@H](C[C@@H]([C@H]3[C@@H](C)CO)OC(=O)C[C@@H]\4C(=CO[C@H](/C4=C/C)O[C@H]5[C@@H]([C@H]([C@@H]([C@H](O5)CO)O)O)O)C(=O)OC)C

> <PUBCHEM_CACTVS_TPSA>
343

> <PUBCHEM_MONOISOTOPIC_WEIGHT>
960.383838

> <PUBCHEM_TOTAL_CHARGE>
0

> <PUBCHEM_HEAVY_ATOM_COUNT>
67

> <PUBCHEM_ATOM_DEF_STEREO_COUNT>
19

> <PUBCHEM_ATOM_UDEF_STEREO_COUNT>
0

> <PUBCHEM_BOND_DEF_STEREO_COUNT>
2

> <PUBCHEM_BOND_UDEF_STEREO_COUNT>
0

> <PUBCHEM_ISOTOPIC_ATOM_COUNT>
0

> <PUBCHEM_COMPONENT_COUNT>
1

> <PUBCHEM_CACTVS_TAUTO_COUNT>
-1

> <PUBCHEM_COORDINATE_TYPE>
1
5
255

> <PUBCHEM_BONDANNOTATIONS>
27  1  5
50  13  6
53  15  5
55  16  6
57  17  6
58  19  5
60  20  6
24  68  5
25  30  5
26  31  6
29  33  5
37  35  5
39  38  5
56  64  5
62  65  5
42  7  6
49  7  5
46  9  6
54  9  5

$$$$
