11804000
  -OEChem-08262005452D

131135  0     1  0  0  0  0  0999 V2000
   13.1730    5.2434    0.0000 O   0  0  0  0  0  0  0  0  0  0  0  0
   15.0240    1.8627    0.0000 O   0  0  0  0  0  0  0  0  0  0  0  0
   10.2267    1.3872    0.0000 O   0  0  0  0  0  0  0  0  0  0  0  0
   15.0844    0.1317    0.0000 O   0  0  0  0  0  0  0  0  0  0  0  0
    8.8999    2.5005    0.0000 O   0  0  0  0  0  0  0  0  0  0  0  0
   19.9417    1.7698    0.0000 O   0  0  0  0  0  0  0  0  0  0  0  0
   19.4064    0.1225    0.0000 O   0  0  0  0  0  0  0  0  0  0  0  0
    6.8671   -2.2052    0.0000 O   0  0  0  0  0  0  0  0  0  0  0  0
    6.0010   -0.7052    0.0000 O   0  0  0  0  0  0  0  0  0  0  0  0
   21.6359    2.1299    0.0000 O   0  0  0  0  0  0  0  0  0  0  0  0
    5.1350   -2.2052    0.0000 O   0  0  0  0  0  0  0  0  0  0  0  0
   20.3575   -0.1865    0.0000 O   0  0  0  0  0  0  0  0  0  0  0  0
   22.2596   -0.8045    0.0000 O   0  0  0  0  0  0  0  0  0  0  0  0
   17.1770   -1.8849    0.0000 O   0  0  0  0  0  0  0  0  0  0  0  0
   23.7459    0.5337    0.0000 O   0  0  0  0  0  0  0  0  0  0  0  0
    6.8671   -4.2052    0.0000 O   0  0  0  0  0  0  0  0  0  0  0  0
    5.1350   -5.2052    0.0000 O   0  0  0  0  0  0  0  0  0  0  0  0
    3.4030   -4.2052    0.0000 O   0  0  0  0  0  0  0  0  0  0  0  0
   16.0181   -0.5977    0.0000 O   0  0  0  0  0  0  0  0  0  0  0  0
    6.0010    2.2948    0.0000 O   0  0  0  0  0  0  0  0  0  0  0  0
    7.2091    2.7345    0.0000 O   0  0  0  0  0  0  0  0  0  0  0  0
   23.1222    3.4682    0.0000 O   0  0  0  0  0  0  0  0  0  0  0  0
    2.5369   -2.7052    0.0000 O   0  0  0  0  0  0  0  0  0  0  0  0
   12.4971    2.7456    0.0000 C   0  0  1  0  0  0  0  0  0  0  0  0
   13.4947    2.6759    0.0000 C   0  0  1  0  0  0  0  0  0  0  0  0
   13.8693    3.6031    0.0000 C   0  0  2  0  0  0  0  0  0  0  0  0
   12.2552    3.7159    0.0000 C   0  0  0  0  0  0  0  0  0  0  0  0
   13.1032    4.2458    0.0000 C   0  0  2  0  0  0  0  0  0  0  0  0
   11.8543    1.9796    0.0000 C   0  0  2  0  0  0  0  0  0  0  0  0
   14.0246    1.8278    0.0000 C   0  0  0  0  0  0  0  0  0  0  0  0
   14.8396    3.8450    0.0000 C   0  0  0  0  0  0  0  0  0  0  0  0
   10.8695    2.1532    0.0000 C   0  0  0  0  0  0  0  0  0  0  0  0
   12.1963    1.0399    0.0000 C   0  0  0  0  0  0  0  0  0  0  0  0
   15.5539    1.0147    0.0000 C   0  0  0  0  0  0  0  0  0  0  0  0
    9.2419    1.5608    0.0000 C   0  0  0  0  0  0  0  0  0  0  0  0
   16.5533    1.0496    0.0000 C   0  0  0  0  0  0  0  0  0  0  0  0
   17.5043    0.7406    0.0000 C   0  0  1  0  0  0  0  0  0  0  0  0
    8.5991    0.7948    0.0000 C   0  0  0  0  0  0  0  0  0  0  0  0
    7.7331    0.2948    0.0000 C   0  0  1  0  0  0  0  0  0  0  0  0
   18.2475    1.4097    0.0000 C   0  0  0  0  0  0  0  0  0  0  0  0
   17.7122   -0.2376    0.0000 C   0  0  0  0  0  0  0  0  0  0  0  0
   19.1985    1.1007    0.0000 C   0  0  2  0  0  0  0  0  0  0  0  0
    7.7331   -0.7052    0.0000 C   0  0  0  0  0  0  0  0  0  0  0  0
    6.8671    0.7948    0.0000 C   0  0  0  0  0  0  0  0  0  0  0  0
    6.8671   -1.2052    0.0000 C   0  0  2  0  0  0  0  0  0  0  0  0
   18.6633   -0.5466    0.0000 C   0  0  0  0  0  0  0  0  0  0  0  0
   20.8927    1.4608    0.0000 C   0  0  2  0  0  0  0  0  0  0  0  0
   18.0396    2.3878    0.0000 C   0  0  0  0  0  0  0  0  0  0  0  0
   21.1006    0.4826    0.0000 C   0  0  1  0  0  0  0  0  0  0  0  0
    6.0010   -2.7052    0.0000 C   0  0  2  0  0  0  0  0  0  0  0  0
   22.0517    0.1736    0.0000 C   0  0  2  0  0  0  0  0  0  0  0  0
   22.7948    0.8428    0.0000 C   0  0  1  0  0  0  0  0  0  0  0  0
    6.0010   -3.7052    0.0000 C   0  0  1  0  0  0  0  0  0  0  0  0
   22.5869    1.8209    0.0000 C   0  0  1  0  0  0  0  0  0  0  0  0
    5.1350   -4.2052    0.0000 C   0  0  2  0  0  0  0  0  0  0  0  0
   16.9691   -0.9067    0.0000 C   0  0  0  0  0  0  0  0  0  0  0  0
    4.2690   -3.7052    0.0000 C   0  0  1  0  0  0  0  0  0  0  0  0
    6.0010    0.2948    0.0000 C   0  0  0  0  0  0  0  0  0  0  0  0
    4.2690   -2.7052    0.0000 C   0  0  1  0  0  0  0  0  0  0  0  0
    8.5991   -1.2052    0.0000 C   0  0  0  0  0  0  0  0  0  0  0  0
    6.8671    1.7948    0.0000 C   0  0  0  0  0  0  0  0  0  0  0  0
   17.0885    2.6969    0.0000 C   0  0  0  0  0  0  0  0  0  0  0  0
   23.3301    2.4900    0.0000 C   0  0  0  0  0  0  0  0  0  0  0  0
    3.4030   -2.2052    0.0000 C   0  0  0  0  0  0  0  0  0  0  0  0
    9.4651   -0.7052    0.0000 C   0  0  0  0  0  0  0  0  0  0  0  0
   16.4340   -2.5540    0.0000 C   0  0  0  0  0  0  0  0  0  0  0  0
    6.0010    3.2948    0.0000 C   0  0  0  0  0  0  0  0  0  0  0  0
   11.6689    2.9368    0.0000 H   0  0  0  0  0  0  0  0  0  0  0  0
   13.1753    2.1444    0.0000 H   0  0  0  0  0  0  0  0  0  0  0  0
   14.2760    3.1351    0.0000 H   0  0  0  0  0  0  0  0  0  0  0  0
   11.9834    4.2732    0.0000 H   0  0  0  0  0  0  0  0  0  0  0  0
   11.6726    3.5039    0.0000 H   0  0  0  0  0  0  0  0  0  0  0  0
   12.5718    4.5652    0.0000 H   0  0  0  0  0  0  0  0  0  0  0  0
   12.4649    1.8719    0.0000 H   0  0  0  0  0  0  0  0  0  0  0  0
   13.4497    1.5956    0.0000 H   0  0  0  0  0  0  0  0  0  0  0  0
   14.1535    1.2214    0.0000 H   0  0  0  0  0  0  0  0  0  0  0  0
   14.9896    3.2434    0.0000 H   0  0  0  0  0  0  0  0  0  0  0  0
   15.4411    3.9950    0.0000 H   0  0  0  0  0  0  0  0  0  0  0  0
   14.6896    4.4466    0.0000 H   0  0  0  0  0  0  0  0  0  0  0  0
   11.0815    2.7358    0.0000 H   0  0  0  0  0  0  0  0  0  0  0  0
   10.3326    2.4632    0.0000 H   0  0  0  0  0  0  0  0  0  0  0  0
   11.6137    0.8278    0.0000 H   0  0  0  0  0  0  0  0  0  0  0  0
   12.4084    0.4573    0.0000 H   0  0  0  0  0  0  0  0  0  0  0  0
   12.7789    1.2519    0.0000 H   0  0  0  0  0  0  0  0  0  0  0  0
   13.7302    5.5152    0.0000 H   0  0  0  0  0  0  0  0  0  0  0  0
   16.9627    1.5151    0.0000 H   0  0  0  0  0  0  0  0  0  0  0  0
   16.4670    0.4356    0.0000 H   0  0  0  0  0  0  0  0  0  0  0  0
   17.3754    1.3470    0.0000 H   0  0  0  0  0  0  0  0  0  0  0  0
    8.6711    0.1790    0.0000 H   0  0  0  0  0  0  0  0  0  0  0  0
    8.2006    1.2697    0.0000 H   0  0  0  0  0  0  0  0  0  0  0  0
    8.2700   -0.0152    0.0000 H   0  0  0  0  0  0  0  0  0  0  0  0
   19.0696    1.7071    0.0000 H   0  0  0  0  0  0  0  0  0  0  0  0
    7.4040   -1.5152    0.0000 H   0  0  0  0  0  0  0  0  0  0  0  0
   20.4320    1.0459    0.0000 H   0  0  0  0  0  0  0  0  0  0  0  0
   18.7922   -1.1530    0.0000 H   0  0  0  0  0  0  0  0  0  0  0  0
   18.5003    2.8027    0.0000 H   0  0  0  0  0  0  0  0  0  0  0  0
   21.2296   -0.1238    0.0000 H   0  0  0  0  0  0  0  0  0  0  0  0
    6.0010   -2.0852    0.0000 H   0  0  0  0  0  0  0  0  0  0  0  0
   21.5910   -0.2412    0.0000 H   0  0  0  0  0  0  0  0  0  0  0  0
   22.9238    0.2363    0.0000 H   0  0  0  0  0  0  0  0  0  0  0  0
    6.0010   -4.3252    0.0000 H   0  0  0  0  0  0  0  0  0  0  0  0
   22.4580    2.4274    0.0000 H   0  0  0  0  0  0  0  0  0  0  0  0
    4.5981   -4.5152    0.0000 H   0  0  0  0  0  0  0  0  0  0  0  0
    4.2690   -4.3252    0.0000 H   0  0  0  0  0  0  0  0  0  0  0  0
    4.2690   -2.0852    0.0000 H   0  0  0  0  0  0  0  0  0  0  0  0
    5.4641    0.6048    0.0000 H   0  0  0  0  0  0  0  0  0  0  0  0
    8.5991   -1.8252    0.0000 H   0  0  0  0  0  0  0  0  0  0  0  0
   17.2801    3.2865    0.0000 H   0  0  0  0  0  0  0  0  0  0  0  0
   16.4989    2.8885    0.0000 H   0  0  0  0  0  0  0  0  0  0  0  0
   16.8969    2.1072    0.0000 H   0  0  0  0  0  0  0  0  0  0  0  0
   23.6586    1.9642    0.0000 H   0  0  0  0  0  0  0  0  0  0  0  0
   23.9049    2.7223    0.0000 H   0  0  0  0  0  0  0  0  0  0  0  0
    3.8015   -1.7303    0.0000 H   0  0  0  0  0  0  0  0  0  0  0  0
    3.0044   -1.7303    0.0000 H   0  0  0  0  0  0  0  0  0  0  0  0
    9.7751   -1.2421    0.0000 H   0  0  0  0  0  0  0  0  0  0  0  0
   10.0021   -0.3952    0.0000 H   0  0  0  0  0  0  0  0  0  0  0  0
    9.1551   -0.1683    0.0000 H   0  0  0  0  0  0  0  0  0  0  0  0
   20.4864   -0.7929    0.0000 H   0  0  0  0  0  0  0  0  0  0  0  0
   22.8493   -0.9961    0.0000 H   0  0  0  0  0  0  0  0  0  0  0  0
   24.2067    0.9486    0.0000 H   0  0  0  0  0  0  0  0  0  0  0  0
    7.4040   -3.8952    0.0000 H   0  0  0  0  0  0  0  0  0  0  0  0
    5.6720   -5.5152    0.0000 H   0  0  0  0  0  0  0  0  0  0  0  0
    3.4030   -4.8252    0.0000 H   0  0  0  0  0  0  0  0  0  0  0  0
   23.5829    3.8830    0.0000 H   0  0  0  0  0  0  0  0  0  0  0  0
    2.0000   -2.3952    0.0000 H   0  0  0  0  0  0  0  0  0  0  0  0
   16.0191   -2.0933    0.0000 H   0  0  0  0  0  0  0  0  0  0  0  0
   15.9732   -2.9689    0.0000 H   0  0  0  0  0  0  0  0  0  0  0  0
   16.8489   -3.0147    0.0000 H   0  0  0  0  0  0  0  0  0  0  0  0
    6.6210    3.2948    0.0000 H   0  0  0  0  0  0  0  0  0  0  0  0
    6.0010    3.9148    0.0000 H   0  0  0  0  0  0  0  0  0  0  0  0
    5.3810    3.2948    0.0000 H   0  0  0  0  0  0  0  0  0  0  0  0
 28  1  1  6  0  0  0
  1 85  1  0  0  0  0
  2 30  1  0  0  0  0
  2 34  1  0  0  0  0
  3 32  1  0  0  0  0
  3 35  1  0  0  0  0
  4 34  2  0  0  0  0
  5 35  2  0  0  0  0
 42  6  1  6  0  0  0
 47  6  1  6  0  0  0
  7 42  1  0  0  0  0
  7 46  1  0  0  0  0
 45  8  1  6  0  0  0
 50  8  1  1  0  0  0
  9 45  1  0  0  0  0
  9 58  1  0  0  0  0
 10 47  1  0  0  0  0
 10 54  1  0  0  0  0
 11 50  1  0  0  0  0
 11 59  1  0  0  0  0
 49 12  1  1  0  0  0
 12118  1  0  0  0  0
 51 13  1  6  0  0  0
 13119  1  0  0  0  0
 14 56  1  0  0  0  0
 14 66  1  0  0  0  0
 52 15  1  1  0  0  0
 15120  1  0  0  0  0
 53 16  1  6  0  0  0
 16121  1  0  0  0  0
 55 17  1  1  0  0  0
 17122  1  0  0  0  0
 57 18  1  6  0  0  0
 18123  1  0  0  0  0
 19 56  2  0  0  0  0
 20 61  1  0  0  0  0
 20 67  1  0  0  0  0
 21 61  2  0  0  0  0
 22 63  1  0  0  0  0
 22124  1  0  0  0  0
 23 64  1  0  0  0  0
 23125  1  0  0  0  0
 24 25  1  0  0  0  0
 24 27  1  0  0  0  0
 24 29  1  0  0  0  0
 24 68  1  1  0  0  0
 25 26  1  0  0  0  0
 25 30  1  1  0  0  0
 25 69  1  0  0  0  0
 26 28  1  0  0  0  0
 26 31  1  6  0  0  0
 26 70  1  0  0  0  0
 27 28  1  0  0  0  0
 27 71  1  0  0  0  0
 27 72  1  0  0  0  0
 28 73  1  0  0  0  0
 29 32  1  0  0  0  0
 29 33  1  1  0  0  0
 29 74  1  0  0  0  0
 30 75  1  0  0  0  0
 30 76  1  0  0  0  0
 31 77  1  0  0  0  0
 31 78  1  0  0  0  0
 31 79  1  0  0  0  0
 32 80  1  0  0  0  0
 32 81  1  0  0  0  0
 33 82  1  0  0  0  0
 33 83  1  0  0  0  0
 33 84  1  0  0  0  0
 34 36  1  0  0  0  0
 35 38  1  0  0  0  0
 37 36  1  1  0  0  0
 36 86  1  0  0  0  0
 36 87  1  0  0  0  0
 37 40  1  0  0  0  0
 37 41  1  0  0  0  0
 37 88  1  0  0  0  0
 39 38  1  1  0  0  0
 38 89  1  0  0  0  0
 38 90  1  0  0  0  0
 39 43  1  0  0  0  0
 39 44  1  0  0  0  0
 39 91  1  0  0  0  0
 40 42  1  0  0  0  0
 40 48  2  0  0  0  0
 41 46  2  0  0  0  0
 41 56  1  0  0  0  0
 42 92  1  0  0  0  0
 43 45  1  0  0  0  0
 43 60  2  0  0  0  0
 44 58  2  0  0  0  0
 44 61  1  0  0  0  0
 45 93  1  0  0  0  0
 46 95  1  0  0  0  0
 47 49  1  0  0  0  0
 47 94  1  0  0  0  0
 48 62  1  0  0  0  0
 48 96  1  0  0  0  0
 49 51  1  0  0  0  0
 49 97  1  0  0  0  0
 50 53  1  0  0  0  0
 50 98  1  0  0  0  0
 51 52  1  0  0  0  0
 51 99  1  0  0  0  0
 52 54  1  0  0  0  0
 52100  1  0  0  0  0
 53 55  1  0  0  0  0
 53101  1  0  0  0  0
 54 63  1  6  0  0  0
 54102  1  0  0  0  0
 55 57  1  0  0  0  0
 55103  1  0  0  0  0
 57 59  1  0  0  0  0
 57104  1  0  0  0  0
 58106  1  0  0  0  0
 59 64  1  1  0  0  0
 59105  1  0  0  0  0
 60 65  1  0  0  0  0
 60107  1  0  0  0  0
 62108  1  0  0  0  0
 62109  1  0  0  0  0
 62110  1  0  0  0  0
 63111  1  0  0  0  0
 63112  1  0  0  0  0
 64113  1  0  0  0  0
 64114  1  0  0  0  0
 65115  1  0  0  0  0
 65116  1  0  0  0  0
 65117  1  0  0  0  0
 66126  1  0  0  0  0
 66127  1  0  0  0  0
 66128  1  0  0  0  0
 67129  1  0  0  0  0
 67130  1  0  0  0  0
 67131  1  0  0  0  0
M  END
> <PUBCHEM_COMPOUND_CID>
11804000

> <PUBCHEM_COMPOUND_CANONICALIZED>
1

> <PUBCHEM_CACTVS_COMPLEXITY>
1850

> <PUBCHEM_CACTVS_HBOND_ACCEPTOR>
23

> <PUBCHEM_CACTVS_HBOND_DONOR>
9

> <PUBCHEM_CACTVS_ROTATABLE_BOND>
21

> <PUBCHEM_CACTVS_SUBSKEYS>
AAADcfB8PgAAAAAAAAAAAAAAAAAAAYAAAAAkSIEAAAAAAAAAAAAAGgAACAAADRSwgAMCCAAABgCIAiDSCAAACAAgIAAACAEAAEgRFBIAIQAiUAAFgAAPIIPI5vwOgAAAAAAAAAAAAAAAAAAAAYAADAAAAA==

> <PUBCHEM_IUPAC_OPENEYE_NAME>
methyl (4S,5E,6S)-5-ethylidene-4-[2-[[(1S,2R,3S,5S)-5-[(1R)-2-[2-[(2S,3E,4S)-3-ethylidene-5-methoxycarbonyl-2-[(2S,3R,4S,5S,6R)-3,4,5-trihydroxy-6-(hydroxymethyl)tetrahydropyran-2-yl]oxy-4H-pyran-4-yl]acetyl]oxy-1-methyl-ethyl]-3-hydroxy-2-methyl-cyclopentyl]methoxy]-2-oxo-ethyl]-6-[(2S,3R,4S,5S,6R)-3,4,5-trihydroxy-6-(hydroxymethyl)tetrahydropyran-2-yl]oxy-4H-pyran-3-carboxylate

> <PUBCHEM_IUPAC_CAS_NAME>
(4S,5E,6S)-5-ethylidene-4-[2-[[(1S,2R,3S,5S)-5-[(2R)-1-[2-[(2S,3E,4S)-3-ethylidene-5-methoxycarbonyl-2-[[(2S,3R,4S,5S,6R)-3,4,5-trihydroxy-6-(hydroxymethyl)-2-oxanyl]oxy]-4H-pyran-4-yl]-1-oxoethoxy]propan-2-yl]-3-hydroxy-2-methylcyclopentyl]methoxy]-2-oxoethyl]-6-[[(2S,3R,4S,5S,6R)-3,4,5-trihydroxy-6-(hydroxymethyl)-2-oxanyl]oxy]-4H-pyran-3-carboxylic acid methyl ester

> <PUBCHEM_IUPAC_NAME_MARKUP>
methyl (4<I>S</I>,5<I>E</I>,6<I>S</I>)-5-ethylidene-4-[2-[[(1<I>S</I>,2<I>R</I>,3<I>S</I>,5<I>S</I>)-5-[(2<I>R</I>)-1-[2-[(2<I>S</I>,3<I>E</I>,4<I>S</I>)-3-ethylidene-5-methoxycarbonyl-2-[(2<I>S</I>,3<I>R</I>,4<I>S</I>,5<I>S</I>,6<I>R</I>)-3,4,5-trihydroxy-6-(hydroxymethyl)oxan-2-yl]oxy-4<I>H</I>-pyran-4-yl]acetyl]oxypropan-2-yl]-3-hydroxy-2-methylcyclopentyl]methoxy]-2-oxoethyl]-6-[(2<I>S</I>,3<I>R</I>,4<I>S</I>,5<I>S</I>,6<I>R</I>)-3,4,5-trihydroxy-6-(hydroxymethyl)oxan-2-yl]oxy-4<I>H</I>-pyran-3-carboxylate

> <PUBCHEM_IUPAC_NAME>
methyl (4S,5E,6S)-5-ethylidene-4-[2-[[(1S,2R,3S,5S)-5-[(2R)-1-[2-[(2S,3E,4S)-3-ethylidene-5-methoxycarbonyl-2-[(2S,3R,4S,5S,6R)-3,4,5-trihydroxy-6-(hydroxymethyl)oxan-2-yl]oxy-4H-pyran-4-yl]acetyl]oxypropan-2-yl]-3-hydroxy-2-methylcyclopentyl]methoxy]-2-oxoethyl]-6-[(2S,3R,4S,5S,6R)-3,4,5-trihydroxy-6-(hydroxymethyl)oxan-2-yl]oxy-4H-pyran-3-carboxylate

> <PUBCHEM_IUPAC_SYSTEMATIC_NAME>
methyl (4S,5E,6S)-5-ethylidene-4-[2-[[(1S,2R,3S,5S)-5-[(2R)-1-[2-[(2S,3E,4S)-3-ethylidene-2-[(2S,3R,4S,5S,6R)-6-(hydroxymethyl)-3,4,5-tris(oxidanyl)oxan-2-yl]oxy-5-methoxycarbonyl-4H-pyran-4-yl]ethanoyloxy]propan-2-yl]-2-methyl-3-oxidanyl-cyclopentyl]methoxy]-2-oxidanylidene-ethyl]-6-[(2S,3R,4S,5S,6R)-6-(hydroxymethyl)-3,4,5-tris(oxidanyl)oxan-2-yl]oxy-4H-pyran-3-carboxylate

> <PUBCHEM_IUPAC_TRADITIONAL_NAME>
(4S,5E,6S)-4-[2-[[(1S,2R,3S,5S)-5-[(1R)-2-[2-[(2S,3E,4S)-5-carbomethoxy-3-ethylidene-2-[(2S,3R,4S,5S,6R)-3,4,5-trihydroxy-6-methylol-tetrahydropyran-2-yl]oxy-4H-pyran-4-yl]acetyl]oxy-1-methyl-ethyl]-3-hydroxy-2-methyl-cyclopentyl]methoxy]-2-keto-ethyl]-5-ethylidene-6-[(2S,3R,4S,5S,6R)-3,4,5-trihydroxy-6-methylol-tetrahydropyran-2-yl]oxy-4H-pyran-3-carboxylic acid methyl ester

> <PUBCHEM_IUPAC_INCHI>
InChI=1S/C44H64O23/c1-7-20-23(26(39(56)58-5)16-62-41(20)66-43-37(54)35(52)33(50)29(12-45)64-43)10-31(48)60-14-18(3)22-9-28(47)19(4)25(22)15-61-32(49)11-24-21(8-2)42(63-17-27(24)40(57)59-6)67-44-38(55)36(53)34(51)30(13-46)65-44/h7-8,16-19,22-25,28-30,33-38,41-47,50-55H,9-15H2,1-6H3/b20-7+,21-8+/t18-,19+,22-,23-,24-,25+,28-,29+,30+,33+,34+,35-,36-,37+,38+,41-,42-,43-,44-/m0/s1

> <PUBCHEM_IUPAC_INCHIKEY>
XIWWQRZPJXTMEF-GMAOUTJVSA-N

> <PUBCHEM_XLOGP3_AA>
-2

> <PUBCHEM_EXACT_MASS>
960.383838

> <PUBCHEM_MOLECULAR_FORMULA>
C44H64O23

> <PUBCHEM_MOLECULAR_WEIGHT>
961

> <PUBCHEM_OPENEYE_CAN_SMILES>
CC=C1C(C(=COC1OC2C(C(C(C(O2)CO)O)O)O)C(=O)OC)CC(=O)OCC3C(C(CC3C(C)COC(=O)CC4C(=COC(C4=CC)OC5C(C(C(C(O5)CO)O)O)O)C(=O)OC)O)C

> <PUBCHEM_OPENEYE_ISO_SMILES>
C/C=C/1\[C@@H](C(=CO[C@H]1O[C@H]2[C@@H]([C@H]([C@@H]([C@H](O2)CO)O)O)O)C(=O)OC)CC(=O)OC[C@@H]3[C@H]([C@H](C[C@H]3[C@@H](C)COC(=O)C[C@@H]\4C(=CO[C@H](/C4=C/C)O[C@H]5[C@@H]([C@H]([C@@H]([C@H](O5)CO)O)O)O)C(=O)OC)O)C

> <PUBCHEM_CACTVS_TPSA>
343

> <PUBCHEM_MONOISOTOPIC_WEIGHT>
960.383838

> <PUBCHEM_TOTAL_CHARGE>
0

> <PUBCHEM_HEAVY_ATOM_COUNT>
67

> <PUBCHEM_ATOM_DEF_STEREO_COUNT>
19

> <PUBCHEM_ATOM_UDEF_STEREO_COUNT>
0

> <PUBCHEM_BOND_DEF_STEREO_COUNT>
2

> <PUBCHEM_BOND_UDEF_STEREO_COUNT>
0

> <PUBCHEM_ISOTOPIC_ATOM_COUNT>
0

> <PUBCHEM_COMPONENT_COUNT>
1

> <PUBCHEM_CACTVS_TAUTO_COUNT>
-1

> <PUBCHEM_COORDINATE_TYPE>
1
5
255

> <PUBCHEM_BONDANNOTATIONS>
28  1  6
49  12  5
51  13  6
52  15  5
53  16  6
55  17  5
57  18  6
24  68  5
25  30  5
26  31  6
29  33  5
37  36  5
39  38  5
54  63  6
59  64  5
42  6  6
47  6  6
45  8  6
50  8  5

$$$$
