609451
  -OEChem-11202011472D

 84 88  0     1  0  0  0  0  0999 V2000
    2.8641   -2.5933    0.0000 O   0  0  0  0  0  0  0  0  0  0  0  0
    6.5251   -0.5410    0.0000 C   0  0  3  0  0  0  0  0  0  0  0  0
    5.6151   -1.0478    0.0000 C   0  0  3  0  0  0  0  0  0  0  0  0
    7.3912   -1.0410    0.0000 C   0  0  3  0  0  0  0  0  0  0  0  0
    8.2572    0.4590    0.0000 C   0  0  3  0  0  0  0  0  0  0  0  0
    5.6071   -2.0894    0.0000 C   0  0  3  0  0  0  0  0  0  0  0  0
    9.1511    0.9937    0.0000 C   0  0  3  0  0  0  0  0  0  0  0  0
    8.2572   -0.5410    0.0000 C   0  0  0  0  0  0  0  0  0  0  0  0
    6.5251    0.4590    0.0000 C   0  0  0  0  0  0  0  0  0  0  0  0
    7.4072   -2.0825    0.0000 C   0  0  0  0  0  0  0  0  0  0  0  0
   10.0572    0.4799    0.0000 C   0  0  3  0  0  0  0  0  0  0  0  0
    7.3912    0.9590    0.0000 C   0  0  0  0  0  0  0  0  0  0  0  0
    4.6717   -2.6391    0.0000 C   0  0  0  0  0  0  0  0  0  0  0  0
    6.5092   -2.6102    0.0000 C   0  0  0  0  0  0  0  0  0  0  0  0
    4.6883   -0.4837    0.0000 C   0  0  0  0  0  0  0  0  0  0  0  0
    9.1260    2.0784    0.0000 C   0  0  0  0  0  0  0  0  0  0  0  0
    3.7320   -2.0966    0.0000 C   0  0  3  0  0  0  0  0  0  0  0  0
   10.0572   -0.5618    0.0000 C   0  0  0  0  0  0  0  0  0  0  0  0
    5.6228   -0.0478    0.0000 C   0  0  0  0  0  0  0  0  0  0  0  0
    8.2572   -1.5410    0.0000 C   0  0  0  0  0  0  0  0  0  0  0  0
    3.7404   -1.0117    0.0000 C   0  0  0  0  0  0  0  0  0  0  0  0
    9.1511   -1.0756    0.0000 C   0  0  0  0  0  0  0  0  0  0  0  0
   11.0010    1.0151    0.0000 C   0  0  0  0  0  0  0  0  0  0  0  0
   10.0572    2.6353    0.0000 C   0  0  0  0  0  0  0  0  0  0  0  0
    8.2572    1.4590    0.0000 C   0  0  0  0  0  0  0  0  0  0  0  0
   11.0010    2.1001    0.0000 C   0  0  0  0  0  0  0  0  0  0  0  0
   10.9270   -0.0135    0.0000 C   0  0  0  0  0  0  0  0  0  0  0  0
    4.1750   -3.5071    0.0000 C   0  0  0  0  0  0  0  0  0  0  0  0
    5.1750   -3.5032    0.0000 C   0  0  0  0  0  0  0  0  0  0  0  0
   10.5471    3.5071    0.0000 C   0  0  0  0  0  0  0  0  0  0  0  0
    9.5472    3.4955    0.0000 C   0  0  0  0  0  0  0  0  0  0  0  0
    2.0000   -2.0900    0.0000 C   0  0  0  0  0  0  0  0  0  0  0  0
    7.0621   -0.2310    0.0000 H   0  0  0  0  0  0  0  0  0  0  0  0
    5.6095   -2.7094    0.0000 H   0  0  0  0  0  0  0  0  0  0  0  0
    9.6832    1.3119    0.0000 H   0  0  0  0  0  0  0  0  0  0  0  0
    6.3131    1.0416    0.0000 H   0  0  0  0  0  0  0  0  0  0  0  0
    5.9145    0.3514    0.0000 H   0  0  0  0  0  0  0  0  0  0  0  0
    7.6252   -2.6629    0.0000 H   0  0  0  0  0  0  0  0  0  0  0  0
    8.0164   -1.9670    0.0000 H   0  0  0  0  0  0  0  0  0  0  0  0
    7.7897    1.4340    0.0000 H   0  0  0  0  0  0  0  0  0  0  0  0
    6.9926    1.4340    0.0000 H   0  0  0  0  0  0  0  0  0  0  0  0
    6.1119   -3.0862    0.0000 H   0  0  0  0  0  0  0  0  0  0  0  0
    6.9101   -3.0831    0.0000 H   0  0  0  0  0  0  0  0  0  0  0  0
    5.0965   -0.0171    0.0000 H   0  0  0  0  0  0  0  0  0  0  0  0
    4.2984   -0.0017    0.0000 H   0  0  0  0  0  0  0  0  0  0  0  0
    8.9035    2.6571    0.0000 H   0  0  0  0  0  0  0  0  0  0  0  0
    8.5178    1.9582    0.0000 H   0  0  0  0  0  0  0  0  0  0  0  0
    3.7308   -2.7166    0.0000 H   0  0  0  0  0  0  0  0  0  0  0  0
   10.2662   -1.1455    0.0000 H   0  0  0  0  0  0  0  0  0  0  0  0
   10.6680   -0.4557    0.0000 H   0  0  0  0  0  0  0  0  0  0  0  0
    6.2428   -0.0526    0.0000 H   0  0  0  0  0  0  0  0  0  0  0  0
    5.6276    0.5721    0.0000 H   0  0  0  0  0  0  0  0  0  0  0  0
    5.0028   -0.0431    0.0000 H   0  0  0  0  0  0  0  0  0  0  0  0
    7.9472   -2.0779    0.0000 H   0  0  0  0  0  0  0  0  0  0  0  0
    8.7941   -1.8510    0.0000 H   0  0  0  0  0  0  0  0  0  0  0  0
    8.5672   -1.0040    0.0000 H   0  0  0  0  0  0  0  0  0  0  0  0
    3.5358   -0.4264    0.0000 H   0  0  0  0  0  0  0  0  0  0  0  0
    3.1288   -1.1131    0.0000 H   0  0  0  0  0  0  0  0  0  0  0  0
    9.1440   -1.6956    0.0000 H   0  0  0  0  0  0  0  0  0  0  0  0
   11.2100    0.4314    0.0000 H   0  0  0  0  0  0  0  0  0  0  0  0
   11.6118    1.1212    0.0000 H   0  0  0  0  0  0  0  0  0  0  0  0
    8.8772    1.4590    0.0000 H   0  0  0  0  0  0  0  0  0  0  0  0
    8.2572    2.0790    0.0000 H   0  0  0  0  0  0  0  0  0  0  0  0
    7.6372    1.4590    0.0000 H   0  0  0  0  0  0  0  0  0  0  0  0
   11.6118    1.9940    0.0000 H   0  0  0  0  0  0  0  0  0  0  0  0
   11.2100    2.6838    0.0000 H   0  0  0  0  0  0  0  0  0  0  0  0
   10.6212   -0.5528    0.0000 H   0  0  0  0  0  0  0  0  0  0  0  0
   11.4663   -0.3193    0.0000 H   0  0  0  0  0  0  0  0  0  0  0  0
   11.2329    0.5259    0.0000 H   0  0  0  0  0  0  0  0  0  0  0  0
    3.6369   -3.1992    0.0000 H   0  0  0  0  0  0  0  0  0  0  0  0
    3.8671   -4.0452    0.0000 H   0  0  0  0  0  0  0  0  0  0  0  0
    4.7131   -3.8150    0.0000 H   0  0  0  0  0  0  0  0  0  0  0  0
    4.6393   -3.8153    0.0000 H   0  0  0  0  0  0  0  0  0  0  0  0
    5.4871   -4.0390    0.0000 H   0  0  0  0  0  0  0  0  0  0  0  0
    5.7107   -3.1912    0.0000 H   0  0  0  0  0  0  0  0  0  0  0  0
   11.0876    3.2033    0.0000 H   0  0  0  0  0  0  0  0  0  0  0  0
   10.8509    4.0476    0.0000 H   0  0  0  0  0  0  0  0  0  0  0  0
   10.0067    3.8108    0.0000 H   0  0  0  0  0  0  0  0  0  0  0  0
   10.0805    3.8117    0.0000 H   0  0  0  0  0  0  0  0  0  0  0  0
    9.2310    4.0288    0.0000 H   0  0  0  0  0  0  0  0  0  0  0  0
    9.0139    3.1793    0.0000 H   0  0  0  0  0  0  0  0  0  0  0  0
    2.3121   -1.5542    0.0000 H   0  0  0  0  0  0  0  0  0  0  0  0
    1.4643   -1.7779    0.0000 H   0  0  0  0  0  0  0  0  0  0  0  0
    1.6879   -2.6257    0.0000 H   0  0  0  0  0  0  0  0  0  0  0  0
  1 17  1  0  0  0  0
  1 32  1  0  0  0  0
  2  3  1  0  0  0  0
  2  4  1  0  0  0  0
  2  9  1  0  0  0  0
  2 33  1  0  0  0  0
  3  6  1  0  0  0  0
  3 15  1  0  0  0  0
  3 19  1  0  0  0  0
  4  8  1  0  0  0  0
  4 10  1  0  0  0  0
  4 20  1  0  0  0  0
  5  7  1  0  0  0  0
  5  8  1  0  0  0  0
  5 12  1  0  0  0  0
  5 25  1  0  0  0  0
  6 13  1  0  0  0  0
  6 14  1  0  0  0  0
  6 34  1  0  0  0  0
  7 11  1  0  0  0  0
  7 16  1  0  0  0  0
  7 35  1  0  0  0  0
  8 22  2  0  0  0  0
  9 12  1  0  0  0  0
  9 36  1  0  0  0  0
  9 37  1  0  0  0  0
 10 14  1  0  0  0  0
 10 38  1  0  0  0  0
 10 39  1  0  0  0  0
 11 18  1  0  0  0  0
 11 23  1  0  0  0  0
 11 27  1  0  0  0  0
 12 40  1  0  0  0  0
 12 41  1  0  0  0  0
 13 17  1  0  0  0  0
 13 28  1  0  0  0  0
 13 29  1  0  0  0  0
 14 42  1  0  0  0  0
 14 43  1  0  0  0  0
 15 21  1  0  0  0  0
 15 44  1  0  0  0  0
 15 45  1  0  0  0  0
 16 24  1  0  0  0  0
 16 46  1  0  0  0  0
 16 47  1  0  0  0  0
 17 21  1  0  0  0  0
 17 48  1  0  0  0  0
 18 22  1  0  0  0  0
 18 49  1  0  0  0  0
 18 50  1  0  0  0  0
 19 51  1  0  0  0  0
 19 52  1  0  0  0  0
 19 53  1  0  0  0  0
 20 54  1  0  0  0  0
 20 55  1  0  0  0  0
 20 56  1  0  0  0  0
 21 57  1  0  0  0  0
 21 58  1  0  0  0  0
 22 59  1  0  0  0  0
 23 26  1  0  0  0  0
 23 60  1  0  0  0  0
 23 61  1  0  0  0  0
 24 26  1  0  0  0  0
 24 30  1  0  0  0  0
 24 31  1  0  0  0  0
 25 62  1  0  0  0  0
 25 63  1  0  0  0  0
 25 64  1  0  0  0  0
 26 65  1  0  0  0  0
 26 66  1  0  0  0  0
 27 67  1  0  0  0  0
 27 68  1  0  0  0  0
 27 69  1  0  0  0  0
 28 70  1  0  0  0  0
 28 71  1  0  0  0  0
 28 72  1  0  0  0  0
 29 73  1  0  0  0  0
 29 74  1  0  0  0  0
 29 75  1  0  0  0  0
 30 76  1  0  0  0  0
 30 77  1  0  0  0  0
 30 78  1  0  0  0  0
 31 79  1  0  0  0  0
 31 80  1  0  0  0  0
 31 81  1  0  0  0  0
 32 82  1  0  0  0  0
 32 83  1  0  0  0  0
 32 84  1  0  0  0  0
M  END
> <PUBCHEM_COMPOUND_CID>
609451

> <PUBCHEM_COMPOUND_CANONICALIZED>
1

> <PUBCHEM_CACTVS_COMPLEXITY>
805

> <PUBCHEM_CACTVS_HBOND_ACCEPTOR>
1

> <PUBCHEM_CACTVS_HBOND_DONOR>
0

> <PUBCHEM_CACTVS_ROTATABLE_BOND>
1

> <PUBCHEM_CACTVS_SUBSKEYS>
AAADcfB4IAAAAAAAAAAAAAAAAAAAAAAAAAAwYMGCAAAAAADAAAAAGgAAAAAADxSggAICAAAABACAAiBCAAAAAAAgAAAACAAAAAgAAAIAAAAAAAAEgAAIAAOAwPAPgAAAAAAAAADAAAYAADAAAAAAAAAAAA==

> <PUBCHEM_IUPAC_OPENEYE_NAME>
3-methoxy-4,4,6a,6a,8a,11,11,14b-octamethyl-1,2,3,4a,5,6,8,9,10,12,12a,13,14,14a-tetradecahydropicene

> <PUBCHEM_IUPAC_CAS_NAME>
3-methoxy-4,4,6a,6a,8a,11,11,14b-octamethyl-1,2,3,4a,5,6,8,9,10,12,12a,13,14,14a-tetradecahydropicene

> <PUBCHEM_IUPAC_NAME_MARKUP>
3-methoxy-4,4,6<I>a</I>,6<I>a</I>,8<I>a</I>,11,11,14<I>b</I>-octamethyl-1,2,3,4<I>a</I>,5,6,8,9,10,12,12<I>a</I>,13,14,14<I>a</I>-tetradecahydropicene

> <PUBCHEM_IUPAC_NAME>
3-methoxy-4,4,6a,6a,8a,11,11,14b-octamethyl-1,2,3,4a,5,6,8,9,10,12,12a,13,14,14a-tetradecahydropicene

> <PUBCHEM_IUPAC_SYSTEMATIC_NAME>
3-methoxy-4,4,6a,6a,8a,11,11,14b-octamethyl-1,2,3,4a,5,6,8,9,10,12,12a,13,14,14a-tetradecahydropicene

> <PUBCHEM_IUPAC_TRADITIONAL_NAME>
3-methoxy-4,4,6a,6a,8a,11,11,14b-octamethyl-1,2,3,4a,5,6,8,9,10,12,12a,13,14,14a-tetradecahydropicene

> <PUBCHEM_IUPAC_INCHI>
InChI=1S/C31H52O/c1-26(2)18-19-28(5)14-10-22-30(7)15-11-21-27(3,4)25(32-9)13-17-29(21,6)23(30)12-16-31(22,8)24(28)20-26/h10,21,23-25H,11-20H2,1-9H3

> <PUBCHEM_IUPAC_INCHIKEY>
MJIBQQFDNJYZGY-UHFFFAOYSA-N

> <PUBCHEM_XLOGP3_AA>
9.8

> <PUBCHEM_EXACT_MASS>
440.401816

> <PUBCHEM_MOLECULAR_FORMULA>
C31H52O

> <PUBCHEM_MOLECULAR_WEIGHT>
440.7

> <PUBCHEM_OPENEYE_CAN_SMILES>
CC1(CCC2(CC=C3C4(CCC5C(C(CCC5(C4CCC3(C2C1)C)C)OC)(C)C)C)C)C

> <PUBCHEM_OPENEYE_ISO_SMILES>
CC1(CCC2(CC=C3C4(CCC5C(C(CCC5(C4CCC3(C2C1)C)C)OC)(C)C)C)C)C

> <PUBCHEM_CACTVS_TPSA>
9.2

> <PUBCHEM_MONOISOTOPIC_WEIGHT>
440.401816

> <PUBCHEM_TOTAL_CHARGE>
0

> <PUBCHEM_HEAVY_ATOM_COUNT>
32

> <PUBCHEM_ATOM_DEF_STEREO_COUNT>
0

> <PUBCHEM_ATOM_UDEF_STEREO_COUNT>
8

> <PUBCHEM_BOND_DEF_STEREO_COUNT>
0

> <PUBCHEM_BOND_UDEF_STEREO_COUNT>
0

> <PUBCHEM_ISOTOPIC_ATOM_COUNT>
0

> <PUBCHEM_COMPONENT_COUNT>
1

> <PUBCHEM_CACTVS_TAUTO_COUNT>
-1

> <PUBCHEM_COORDINATE_TYPE>
1
5
255

> <PUBCHEM_BONDANNOTATIONS>
17  1  3
11  27  3
2  9  3
3  19  3
4  20  3
5  25  3
6  14  3
7  16  3

$$$$
