543599
  -OEChem-11202011452D

 79 82  0     1  0  0  0  0  0999 V2000
    5.6489   -4.1911    0.0000 O   0  0  0  0  0  0  0  0  0  0  0  0
    2.0000   -3.1742    0.0000 O   0  0  0  0  0  0  0  0  0  0  0  0
    7.3931   -0.1219    0.0000 C   0  0  3  0  0  0  0  0  0  0  0  0
    7.3931   -1.1219    0.0000 C   0  0  3  0  0  0  0  0  0  0  0  0
    6.5271   -1.6219    0.0000 C   0  0  3  0  0  0  0  0  0  0  0  0
    5.6610   -1.1219    0.0000 C   0  0  3  0  0  0  0  0  0  0  0  0
    8.3393    0.1828    0.0000 C   0  0  3  0  0  0  0  0  0  0  0  0
    4.7510   -1.6287    0.0000 C   0  0  3  0  0  0  0  0  0  0  0  0
    6.5271    0.3781    0.0000 C   0  0  0  0  0  0  0  0  0  0  0  0
    5.6610   -0.1219    0.0000 C   0  0  0  0  0  0  0  0  0  0  0  0
    8.3393   -1.4266    0.0000 C   0  0  0  0  0  0  0  0  0  0  0  0
    8.9229   -0.6219    0.0000 C   0  0  0  0  0  0  0  0  0  0  0  0
    4.7430   -2.6703    0.0000 C   0  0  3  0  0  0  0  0  0  0  0  0
    6.5431   -2.6634    0.0000 C   0  0  0  0  0  0  0  0  0  0  0  0
    8.6500    1.1334    0.0000 C   0  0  3  0  0  0  0  0  0  0  0  0
    7.3931    0.8781    0.0000 C   0  0  0  0  0  0  0  0  0  0  0  0
    3.8242   -1.0647    0.0000 C   0  0  0  0  0  0  0  0  0  0  0  0
    5.6451   -3.1912    0.0000 C   0  0  0  0  0  0  0  0  0  0  0  0
    4.7587   -0.6288    0.0000 C   0  0  0  0  0  0  0  0  0  0  0  0
    3.8076   -3.2201    0.0000 C   0  0  0  0  0  0  0  0  0  0  0  0
    2.8763   -1.5926    0.0000 C   0  0  0  0  0  0  0  0  0  0  0  0
    9.6285    1.3396    0.0000 C   0  0  0  0  0  0  0  0  0  0  0  0
    7.9821    1.8777    0.0000 C   0  0  0  0  0  0  0  0  0  0  0  0
    2.8680   -2.6776    0.0000 C   0  0  0  0  0  0  0  0  0  0  0  0
    9.9391    2.2901    0.0000 C   0  0  0  0  0  0  0  0  0  0  0  0
   10.9176    2.4963    0.0000 C   0  0  3  0  0  0  0  0  0  0  0  0
   11.2283    3.4468    0.0000 C   0  0  0  0  0  0  0  0  0  0  0  0
   11.5855    1.7520    0.0000 C   0  0  0  0  0  0  0  0  0  0  0  0
   12.2068    3.6531    0.0000 C   0  0  0  0  0  0  0  0  0  0  0  0
   10.5605    4.1911    0.0000 C   0  0  0  0  0  0  0  0  0  0  0  0
   12.5640    1.9582    0.0000 C   0  0  0  0  0  0  0  0  0  0  0  0
    7.4587   -1.7384    0.0000 H   0  0  0  0  0  0  0  0  0  0  0  0
    7.0664   -1.9277    0.0000 H   0  0  0  0  0  0  0  0  0  0  0  0
    6.1980   -0.8119    0.0000 H   0  0  0  0  0  0  0  0  0  0  0  0
    8.9518    0.2790    0.0000 H   0  0  0  0  0  0  0  0  0  0  0  0
    6.9256    0.8531    0.0000 H   0  0  0  0  0  0  0  0  0  0  0  0
    6.1285    0.8531    0.0000 H   0  0  0  0  0  0  0  0  0  0  0  0
    5.4490    0.4607    0.0000 H   0  0  0  0  0  0  0  0  0  0  0  0
    5.0504   -0.2296    0.0000 H   0  0  0  0  0  0  0  0  0  0  0  0
    8.0883   -1.9935    0.0000 H   0  0  0  0  0  0  0  0  0  0  0  0
    8.8767   -1.7358    0.0000 H   0  0  0  0  0  0  0  0  0  0  0  0
    9.3838   -1.0366    0.0000 H   0  0  0  0  0  0  0  0  0  0  0  0
    9.3838   -0.2072    0.0000 H   0  0  0  0  0  0  0  0  0  0  0  0
    4.7454   -3.2903    0.0000 H   0  0  0  0  0  0  0  0  0  0  0  0
    6.7612   -3.2438    0.0000 H   0  0  0  0  0  0  0  0  0  0  0  0
    7.1523   -2.5479    0.0000 H   0  0  0  0  0  0  0  0  0  0  0  0
    8.0433    1.0055    0.0000 H   0  0  0  0  0  0  0  0  0  0  0  0
    8.0131    0.8781    0.0000 H   0  0  0  0  0  0  0  0  0  0  0  0
    7.3931    1.4981    0.0000 H   0  0  0  0  0  0  0  0  0  0  0  0
    6.7731    0.8781    0.0000 H   0  0  0  0  0  0  0  0  0  0  0  0
    4.2324   -0.5980    0.0000 H   0  0  0  0  0  0  0  0  0  0  0  0
    3.4343   -0.5826    0.0000 H   0  0  0  0  0  0  0  0  0  0  0  0
    5.3787   -0.6335    0.0000 H   0  0  0  0  0  0  0  0  0  0  0  0
    4.7635   -0.0088    0.0000 H   0  0  0  0  0  0  0  0  0  0  0  0
    4.1388   -0.6240    0.0000 H   0  0  0  0  0  0  0  0  0  0  0  0
    3.4103   -3.6960    0.0000 H   0  0  0  0  0  0  0  0  0  0  0  0
    4.2085   -3.6930    0.0000 H   0  0  0  0  0  0  0  0  0  0  0  0
    2.6718   -1.0073    0.0000 H   0  0  0  0  0  0  0  0  0  0  0  0
    2.2647   -1.6940    0.0000 H   0  0  0  0  0  0  0  0  0  0  0  0
    9.6490    0.7199    0.0000 H   0  0  0  0  0  0  0  0  0  0  0  0
   10.2423    1.2522    0.0000 H   0  0  0  0  0  0  0  0  0  0  0  0
    8.4436    2.2917    0.0000 H   0  0  0  0  0  0  0  0  0  0  0  0
    7.5681    2.3391    0.0000 H   0  0  0  0  0  0  0  0  0  0  0  0
    7.5207    1.4636    0.0000 H   0  0  0  0  0  0  0  0  0  0  0  0
    9.9186    2.9098    0.0000 H   0  0  0  0  0  0  0  0  0  0  0  0
    9.3253    2.3774    0.0000 H   0  0  0  0  0  0  0  0  0  0  0  0
   10.7250    1.9070    0.0000 H   0  0  0  0  0  0  0  0  0  0  0  0
   11.4209    4.0362    0.0000 H   0  0  0  0  0  0  0  0  0  0  0  0
   11.0591    1.4244    0.0000 H   0  0  0  0  0  0  0  0  0  0  0  0
   11.8167    1.1768    0.0000 H   0  0  0  0  0  0  0  0  0  0  0  0
   12.3347    3.0464    0.0000 H   0  0  0  0  0  0  0  0  0  0  0  0
   12.8135    3.7809    0.0000 H   0  0  0  0  0  0  0  0  0  0  0  0
   12.0790    4.2597    0.0000 H   0  0  0  0  0  0  0  0  0  0  0  0
   11.0219    4.6052    0.0000 H   0  0  0  0  0  0  0  0  0  0  0  0
   10.1464    4.6526    0.0000 H   0  0  0  0  0  0  0  0  0  0  0  0
   10.0990    3.7771    0.0000 H   0  0  0  0  0  0  0  0  0  0  0  0
   12.6918    1.3516    0.0000 H   0  0  0  0  0  0  0  0  0  0  0  0
   13.1707    2.0861    0.0000 H   0  0  0  0  0  0  0  0  0  0  0  0
   12.4361    2.5649    0.0000 H   0  0  0  0  0  0  0  0  0  0  0  0
  1 18  2  0  0  0  0
  2 24  2  0  0  0  0
  3  4  1  0  0  0  0
  3  7  1  0  0  0  0
  3  9  1  0  0  0  0
  3 16  1  0  0  0  0
  4  5  1  0  0  0  0
  4 11  1  0  0  0  0
  4 32  1  0  0  0  0
  5  6  1  0  0  0  0
  5 14  1  0  0  0  0
  5 33  1  0  0  0  0
  6  8  1  0  0  0  0
  6 10  1  0  0  0  0
  6 34  1  0  0  0  0
  7 12  1  0  0  0  0
  7 15  1  0  0  0  0
  7 35  1  0  0  0  0
  8 13  1  0  0  0  0
  8 17  1  0  0  0  0
  8 19  1  0  0  0  0
  9 10  1  0  0  0  0
  9 36  1  0  0  0  0
  9 37  1  0  0  0  0
 10 38  1  0  0  0  0
 10 39  1  0  0  0  0
 11 12  1  0  0  0  0
 11 40  1  0  0  0  0
 11 41  1  0  0  0  0
 12 42  1  0  0  0  0
 12 43  1  0  0  0  0
 13 18  1  0  0  0  0
 13 20  1  0  0  0  0
 13 44  1  0  0  0  0
 14 18  1  0  0  0  0
 14 45  1  0  0  0  0
 14 46  1  0  0  0  0
 15 22  1  0  0  0  0
 15 23  1  0  0  0  0
 15 47  1  0  0  0  0
 16 48  1  0  0  0  0
 16 49  1  0  0  0  0
 16 50  1  0  0  0  0
 17 21  1  0  0  0  0
 17 51  1  0  0  0  0
 17 52  1  0  0  0  0
 19 53  1  0  0  0  0
 19 54  1  0  0  0  0
 19 55  1  0  0  0  0
 20 24  1  0  0  0  0
 20 56  1  0  0  0  0
 20 57  1  0  0  0  0
 21 24  1  0  0  0  0
 21 58  1  0  0  0  0
 21 59  1  0  0  0  0
 22 25  1  0  0  0  0
 22 60  1  0  0  0  0
 22 61  1  0  0  0  0
 23 62  1  0  0  0  0
 23 63  1  0  0  0  0
 23 64  1  0  0  0  0
 25 26  1  0  0  0  0
 25 65  1  0  0  0  0
 25 66  1  0  0  0  0
 26 27  1  0  0  0  0
 26 28  1  0  0  0  0
 26 67  1  0  0  0  0
 27 29  1  0  0  0  0
 27 30  1  0  0  0  0
 27 68  1  0  0  0  0
 28 31  1  0  0  0  0
 28 69  1  0  0  0  0
 28 70  1  0  0  0  0
 29 71  1  0  0  0  0
 29 72  1  0  0  0  0
 29 73  1  0  0  0  0
 30 74  1  0  0  0  0
 30 75  1  0  0  0  0
 30 76  1  0  0  0  0
 31 77  1  0  0  0  0
 31 78  1  0  0  0  0
 31 79  1  0  0  0  0
M  END
> <PUBCHEM_COMPOUND_CID>
543599

> <PUBCHEM_COMPOUND_CANONICALIZED>
1

> <PUBCHEM_CACTVS_COMPLEXITY>
695

> <PUBCHEM_CACTVS_HBOND_ACCEPTOR>
2

> <PUBCHEM_CACTVS_HBOND_DONOR>
0

> <PUBCHEM_CACTVS_ROTATABLE_BOND>
6

> <PUBCHEM_CACTVS_SUBSKEYS>
AAADcfB4MAAAAAAAAAAAAAAAAAAAAYAAAAAwYMAAAAAAAGDAAAAAGgAAAAAADwSAgAACAAAAAAAIAIAQAAAAAAAAAAAAAAEAAAAAABIAAAAAAAAAAAAAAAEJiMCPgAAAAAAAAACAAAQAACAAAQAACAAAAA==

> <PUBCHEM_IUPAC_OPENEYE_NAME>
17-(4-ethyl-1,5-dimethyl-hexyl)-10,13-dimethyl-2,4,5,7,8,9,11,12,14,15,16,17-dodecahydro-1H-cyclopenta[a]phenanthrene-3,6-dione

> <PUBCHEM_IUPAC_CAS_NAME>
17-(5-ethyl-6-methylheptan-2-yl)-10,13-dimethyl-2,4,5,7,8,9,11,12,14,15,16,17-dodecahydro-1H-cyclopenta[a]phenanthrene-3,6-dione

> <PUBCHEM_IUPAC_NAME_MARKUP>
17-(5-ethyl-6-methylheptan-2-yl)-10,13-dimethyl-2,4,5,7,8,9,11,12,14,15,16,17-dodecahydro-1<I>H</I>-cyclopenta[a]phenanthrene-3,6-dione

> <PUBCHEM_IUPAC_NAME>
17-(5-ethyl-6-methylheptan-2-yl)-10,13-dimethyl-2,4,5,7,8,9,11,12,14,15,16,17-dodecahydro-1H-cyclopenta[a]phenanthrene-3,6-dione

> <PUBCHEM_IUPAC_SYSTEMATIC_NAME>
17-(5-ethyl-6-methyl-heptan-2-yl)-10,13-dimethyl-2,4,5,7,8,9,11,12,14,15,16,17-dodecahydro-1H-cyclopenta[a]phenanthrene-3,6-dione

> <PUBCHEM_IUPAC_TRADITIONAL_NAME>
17-(4-ethyl-1,5-dimethyl-hexyl)-10,13-dimethyl-2,4,5,7,8,9,11,12,14,15,16,17-dodecahydro-1H-cyclopenta[a]phenanthrene-3,6-quinone

> <PUBCHEM_IUPAC_INCHI>
InChI=1S/C29H48O2/c1-7-20(18(2)3)9-8-19(4)23-10-11-24-22-17-27(31)26-16-21(30)12-14-29(26,6)25(22)13-15-28(23,24)5/h18-20,22-26H,7-17H2,1-6H3

> <PUBCHEM_IUPAC_INCHIKEY>
HMMVBUVVQLUGQA-UHFFFAOYSA-N

> <PUBCHEM_XLOGP3_AA>
8.1

> <PUBCHEM_EXACT_MASS>
428.365431

> <PUBCHEM_MOLECULAR_FORMULA>
C29H48O2

> <PUBCHEM_MOLECULAR_WEIGHT>
428.7

> <PUBCHEM_OPENEYE_CAN_SMILES>
CCC(CCC(C)C1CCC2C1(CCC3C2CC(=O)C4C3(CCC(=O)C4)C)C)C(C)C

> <PUBCHEM_OPENEYE_ISO_SMILES>
CCC(CCC(C)C1CCC2C1(CCC3C2CC(=O)C4C3(CCC(=O)C4)C)C)C(C)C

> <PUBCHEM_CACTVS_TPSA>
34.1

> <PUBCHEM_MONOISOTOPIC_WEIGHT>
428.365431

> <PUBCHEM_TOTAL_CHARGE>
0

> <PUBCHEM_HEAVY_ATOM_COUNT>
31

> <PUBCHEM_ATOM_DEF_STEREO_COUNT>
0

> <PUBCHEM_ATOM_UDEF_STEREO_COUNT>
9

> <PUBCHEM_BOND_DEF_STEREO_COUNT>
0

> <PUBCHEM_BOND_UDEF_STEREO_COUNT>
0

> <PUBCHEM_ISOTOPIC_ATOM_COUNT>
0

> <PUBCHEM_COMPONENT_COUNT>
1

> <PUBCHEM_CACTVS_TAUTO_COUNT>
-1

> <PUBCHEM_COORDINATE_TYPE>
1
5
255

> <PUBCHEM_BONDANNOTATIONS>
13  20  3
15  23  3
26  28  3
3  16  3
4  11  3
5  14  3
6  10  3
7  12  3
8  19  3

$$$$
