16111601
  -OEChem-10022016142D

 93102  0     1  0  0  0  0  0999 V2000
    5.0549    0.9787    0.0000 O   0  0  0  0  0  0  0  0  0  0  0  0
    8.2673   -0.9953    0.0000 O   0  0  0  0  0  0  0  0  0  0  0  0
    6.9364    3.6810    0.0000 O   0  0  0  0  0  0  0  0  0  0  0  0
    9.9387   -1.8752    0.0000 O   0  0  0  0  0  0  0  0  0  0  0  0
    2.6421    0.9594    0.0000 O   0  0  0  0  0  0  0  0  0  0  0  0
    2.5403    3.2051    0.0000 O   0  0  0  0  0  0  0  0  0  0  0  0
    2.5345    2.1535    0.0000 O   0  0  0  0  0  0  0  0  0  0  0  0
    3.7145   -0.4095    0.0000 O   0  0  0  0  0  0  0  0  0  0  0  0
    3.9677   -1.6641    0.0000 O   0  0  0  0  0  0  0  0  0  0  0  0
    2.5780   -0.8527    0.0000 O   0  0  0  0  0  0  0  0  0  0  0  0
   10.2539   -3.5080    0.0000 O   0  0  0  0  0  0  0  0  0  0  0  0
    2.5877   -2.7108    0.0000 O   0  0  0  0  0  0  0  0  0  0  0  0
    6.7728   -3.9294    0.0000 O   0  0  0  0  0  0  0  0  0  0  0  0
    5.3928   -4.9761    0.0000 O   0  0  0  0  0  0  0  0  0  0  0  0
    7.8464    1.1741    0.0000 C   0  0  2  0  0  0  0  0  0  0  0  0
    8.8296    1.4991    0.0000 C   0  0  1  0  0  0  0  0  0  0  0  0
    9.4439    0.6656    0.0000 C   0  0  1  0  0  0  0  0  0  0  0  0
    6.9364    1.6810    0.0000 C   0  0  1  0  0  0  0  0  0  0  0  0
    7.8545    0.1325    0.0000 C   0  0  3  0  0  0  0  0  0  0  0  0
    8.8425   -0.1773    0.0000 C   0  0  1  0  0  0  0  0  0  0  0  0
    9.8590    1.6147    0.0000 C   0  0  0  0  0  0  0  0  0  0  0  0
    6.0704    3.1810    0.0000 C   0  0  2  0  0  0  0  0  0  0  0  0
    5.7053    4.1053    0.0000 C   0  0  2  0  0  0  0  0  0  0  0  0
    6.0704    1.1810    0.0000 C   0  0  1  0  0  0  0  0  0  0  0  0
    4.7117    4.1249    0.0000 C   0  0  2  0  0  0  0  0  0  0  0  0
    6.9364    2.6810    0.0000 C   0  0  0  0  0  0  0  0  0  0  0  0
    4.3104    3.2156    0.0000 C   0  0  1  0  0  0  0  0  0  0  0  0
    5.2044    2.6810    0.0000 C   0  0  0  0  0  0  0  0  0  0  0  0
    5.2255    4.9761    0.0000 C   0  0  0  0  0  0  0  0  0  0  0  0
    6.9524   -0.3883    0.0000 C   0  0  0  0  0  0  0  0  0  0  0  0
    5.2044    1.6810    0.0000 C   0  0  0  0  0  0  0  0  0  0  0  0
    6.0544    0.1395    0.0000 C   0  0  0  0  0  0  0  0  0  0  0  0
    7.8387    2.1741    0.0000 C   0  0  0  0  0  0  0  0  0  0  0  0
    9.4468   -0.9740    0.0000 C   0  0  0  0  0  0  0  0  0  0  0  0
    3.4044    2.7018    0.0000 C   0  0  0  0  0  0  0  0  0  0  0  0
    4.3104    1.1463    0.0000 C   0  0  0  0  0  0  0  0  0  0  0  0
    3.8205    4.0874    0.0000 C   0  0  0  0  0  0  0  0  0  0  0  0
    3.4044    1.6602    0.0000 C   0  0  2  0  0  0  0  0  0  0  0  0
    5.3477   -0.6174    0.0000 C   0  0  0  0  0  0  0  0  0  0  0  0
    4.6702   -0.1152    0.0000 C   0  0  0  0  0  0  0  0  0  0  0  0
    4.1004    0.1324    0.0000 C   0  0  0  0  0  0  0  0  0  0  0  0
    4.9599   -1.5391    0.0000 C   0  0  0  0  0  0  0  0  0  0  0  0
    3.0713    0.0171    0.0000 C   0  0  0  0  0  0  0  0  0  0  0  0
    4.3141   -0.8445    0.0000 C   0  0  0  0  0  0  0  0  0  0  0  0
    9.5508   -2.7970    0.0000 C   0  0  0  0  0  0  0  0  0  0  0  0
    8.6248   -3.1744    0.0000 C   0  0  0  0  0  0  0  0  0  0  0  0
    3.5799   -2.5858    0.0000 C   0  0  0  0  0  0  0  0  0  0  0  0
    8.4887   -4.1651    0.0000 C   0  0  0  0  0  0  0  0  0  0  0  0
    4.1842   -3.3826    0.0000 C   0  0  0  0  0  0  0  0  0  0  0  0
    7.5627   -4.5426    0.0000 C   0  0  0  0  0  0  0  0  0  0  0  0
    9.2786   -4.7783    0.0000 C   0  0  0  0  0  0  0  0  0  0  0  0
    5.1763   -3.2576    0.0000 C   0  0  0  0  0  0  0  0  0  0  0  0
    5.7806   -4.0544    0.0000 C   0  0  0  0  0  0  0  0  0  0  0  0
    8.3253    2.1834    0.0000 H   0  0  0  0  0  0  0  0  0  0  0  0
    9.9482   -0.0186    0.0000 H   0  0  0  0  0  0  0  0  0  0  0  0
    7.3614    2.4171    0.0000 H   0  0  0  0  0  0  0  0  0  0  0  0
    7.9225   -0.4837    0.0000 H   0  0  0  0  0  0  0  0  0  0  0  0
   10.4616    1.4688    0.0000 H   0  0  0  0  0  0  0  0  0  0  0  0
    9.8980    2.2335    0.0000 H   0  0  0  0  0  0  0  0  0  0  0  0
    6.4744    4.4673    0.0000 H   0  0  0  0  0  0  0  0  0  0  0  0
    3.9575    4.5168    0.0000 H   0  0  0  0  0  0  0  0  0  0  0  0
    7.5470    2.5733    0.0000 H   0  0  0  0  0  0  0  0  0  0  0  0
    7.1485    3.2636    0.0000 H   0  0  0  0  0  0  0  0  0  0  0  0
    5.7082    5.3652    0.0000 H   0  0  0  0  0  0  0  0  0  0  0  0
    4.7584    5.3838    0.0000 H   0  0  0  0  0  0  0  0  0  0  0  0
    6.5514   -0.8612    0.0000 H   0  0  0  0  0  0  0  0  0  0  0  0
    7.3497   -0.8643    0.0000 H   0  0  0  0  0  0  0  0  0  0  0  0
    8.4587    2.1789    0.0000 H   0  0  0  0  0  0  0  0  0  0  0  0
    7.8340    2.7941    0.0000 H   0  0  0  0  0  0  0  0  0  0  0  0
    7.2188    2.1693    0.0000 H   0  0  0  0  0  0  0  0  0  0  0  0
   10.0666   -0.9581    0.0000 H   0  0  0  0  0  0  0  0  0  0  0  0
    8.9262   -1.3108    0.0000 H   0  0  0  0  0  0  0  0  0  0  0  0
    4.3610    4.3912    0.0000 H   0  0  0  0  0  0  0  0  0  0  0  0
    3.5167    4.6279    0.0000 H   0  0  0  0  0  0  0  0  0  0  0  0
    3.2800    3.7836    0.0000 H   0  0  0  0  0  0  0  0  0  0  0  0
    8.5282   -1.5577    0.0000 H   0  0  0  0  0  0  0  0  0  0  0  0
    6.9364    4.3010    0.0000 H   0  0  0  0  0  0  0  0  0  0  0  0
    4.9294   -2.1584    0.0000 H   0  0  0  0  0  0  0  0  0  0  0  0
    5.5644   -1.6767    0.0000 H   0  0  0  0  0  0  0  0  0  0  0  0
    2.0000    1.8393    0.0000 H   0  0  0  0  0  0  0  0  0  0  0  0
    3.7084   -0.9770    0.0000 H   0  0  0  0  0  0  0  0  0  0  0  0
    4.4466   -1.4502    0.0000 H   0  0  0  0  0  0  0  0  0  0  0  0
    4.9198   -0.7120    0.0000 H   0  0  0  0  0  0  0  0  0  0  0  0
    8.1350   -2.7942    0.0000 H   0  0  0  0  0  0  0  0  0  0  0  0
    3.6326   -3.6658    0.0000 H   0  0  0  0  0  0  0  0  0  0  0  0
    4.3673   -3.9749    0.0000 H   0  0  0  0  0  0  0  0  0  0  0  0
    7.1032   -4.9589    0.0000 H   0  0  0  0  0  0  0  0  0  0  0  0
    7.8929   -5.0674    0.0000 H   0  0  0  0  0  0  0  0  0  0  0  0
    8.8984   -5.2681    0.0000 H   0  0  0  0  0  0  0  0  0  0  0  0
    9.7684   -5.1585    0.0000 H   0  0  0  0  0  0  0  0  0  0  0  0
    9.6588   -4.2886    0.0000 H   0  0  0  0  0  0  0  0  0  0  0  0
    5.7279   -2.9744    0.0000 H   0  0  0  0  0  0  0  0  0  0  0  0
    4.9932   -2.6653    0.0000 H   0  0  0  0  0  0  0  0  0  0  0  0
 24  1  1  6  0  0  0
  1 40  1  0  0  0  0
 20  2  1  6  0  0  0
  2 76  1  0  0  0  0
 22  3  1  6  0  0  0
  3 77  1  0  0  0  0
  4 34  1  0  0  0  0
  4 45  1  0  0  0  0
  5 38  1  0  0  0  0
  5 43  1  0  0  0  0
  6 35  2  0  0  0  0
 38  7  1  1  0  0  0
  7 80  1  0  0  0  0
  8 40  2  0  0  0  0
  9 42  1  0  0  0  0
  9 47  1  0  0  0  0
 10 43  2  0  0  0  0
 11 45  2  0  0  0  0
 12 47  2  0  0  0  0
 13 50  1  0  0  0  0
 13 53  1  0  0  0  0
 14 53  2  0  0  0  0
 15 16  1  0  0  0  0
 15 18  1  0  0  0  0
 15 19  1  0  0  0  0
 15 33  1  6  0  0  0
 16 17  1  0  0  0  0
 16 21  1  0  0  0  0
 16 54  1  1  0  0  0
 17 20  1  0  0  0  0
 17 21  1  0  0  0  0
 17 55  1  1  0  0  0
 18 24  1  0  0  0  0
 18 26  1  0  0  0  0
 18 56  1  6  0  0  0
 19 20  1  0  0  0  0
 19 30  1  0  0  0  0
 19 57  1  0  0  0  0
 20 34  1  0  0  0  0
 21 58  1  0  0  0  0
 21 59  1  0  0  0  0
 22 23  1  0  0  0  0
 22 26  1  0  0  0  0
 22 28  1  0  0  0  0
 23 25  1  0  0  0  0
 23 29  1  0  0  0  0
 23 60  1  1  0  0  0
 24 31  1  0  0  0  0
 24 32  1  0  0  0  0
 25 27  1  0  0  0  0
 25 29  1  0  0  0  0
 25 61  1  1  0  0  0
 26 62  1  0  0  0  0
 26 63  1  0  0  0  0
 27 28  1  0  0  0  0
 27 35  1  0  0  0  0
 27 37  1  6  0  0  0
 28 31  2  0  0  0  0
 29 64  1  0  0  0  0
 29 65  1  0  0  0  0
 30 32  1  0  0  0  0
 30 66  1  0  0  0  0
 30 67  1  0  0  0  0
 31 36  1  0  0  0  0
 32 39  2  0  0  0  0
 33 68  1  0  0  0  0
 33 69  1  0  0  0  0
 33 70  1  0  0  0  0
 34 71  1  0  0  0  0
 34 72  1  0  0  0  0
 35 38  1  0  0  0  0
 36 38  1  0  0  0  0
 36 41  2  0  0  0  0
 37 73  1  0  0  0  0
 37 74  1  0  0  0  0
 37 75  1  0  0  0  0
 39 40  1  0  0  0  0
 39 42  1  0  0  0  0
 41 43  1  0  0  0  0
 41 44  1  0  0  0  0
 42 78  1  0  0  0  0
 42 79  1  0  0  0  0
 44 81  1  0  0  0  0
 44 82  1  0  0  0  0
 44 83  1  0  0  0  0
 45 46  1  0  0  0  0
 46 48  2  0  0  0  0
 46 84  1  0  0  0  0
 47 49  1  0  0  0  0
 48 50  1  0  0  0  0
 48 51  1  0  0  0  0
 49 52  1  0  0  0  0
 49 85  1  0  0  0  0
 49 86  1  0  0  0  0
 50 87  1  0  0  0  0
 50 88  1  0  0  0  0
 51 89  1  0  0  0  0
 51 90  1  0  0  0  0
 51 91  1  0  0  0  0
 52 53  1  0  0  0  0
 52 92  1  0  0  0  0
 52 93  1  0  0  0  0
M  END
> <PUBCHEM_COMPOUND_CID>
16111601

> <PUBCHEM_COMPOUND_CANONICALIZED>
1

> <PUBCHEM_CACTVS_COMPLEXITY>
2070

> <PUBCHEM_CACTVS_HBOND_ACCEPTOR>
14

> <PUBCHEM_CACTVS_HBOND_DONOR>
3

> <PUBCHEM_CACTVS_ROTATABLE_BOND>
0

> <PUBCHEM_CACTVS_SUBSKEYS>
AAADcfB8PAAAAAAAAAAAAAAAGDAAAYMECAAwYMECAAAAAEDAAAAAGgAACAAAD0SggAICCAAABgCIAqDSCAIAAAAgAAAACAFAAEgZBBYAIQQCUAAF4AAPsQPL7PzPgAAAAAAAAADAAAYAADAAAYAADAAAAA==

> <PUBCHEM_IUPAC_OPENEYE_NAME>
(1S,2S,4S,5S,7R,8S,10S,16R,28E,33S,34S,36R)-4,10,33-trihydroxy-1,8,13,28-tetramethyl-11,17,21,26,31-pentaoxadecacyclo[17.17.3.14,8.02,16.05,7.010,14.016,39.033,37.034,36.015,40]tetraconta-13,15(40),19(39),28-tetraene-9,12,18,22,25,30-hexone

> <PUBCHEM_IUPAC_CAS_NAME>
(1S,2S,4S,5S,7R,8S,10S,16R,28E,33S,34S,36R)-4,10,33-trihydroxy-1,8,13,28-tetramethyl-11,17,21,26,31-pentaoxadecacyclo[17.17.3.14,8.02,16.05,7.010,14.016,39.033,37.034,36.015,40]tetraconta-13,15(40),19(39),28-tetraene-9,12,18,22,25,30-hexone

> <PUBCHEM_IUPAC_NAME_MARKUP>
(1<I>S</I>,2<I>S</I>,4<I>S</I>,5<I>S</I>,7<I>R</I>,8<I>S</I>,10<I>S</I>,16<I>R</I>,28<I>E</I>,33<I>S</I>,34<I>S</I>,36<I>R</I>)-4,10,33-trihydroxy-1,8,13,28-tetramethyl-11,17,21,26,31-pentaoxadecacyclo[17.17.3.1<SUP>4,8</SUP>.0<SUP>2,16</SUP>.0<SUP>5,7</SUP>.0<SUP>10,14</SUP>.0<SUP>16,39</SUP>.0<SUP>33,37</SUP>.0<SUP>34,36</SUP>.0<SUP>15,40</SUP>]tetraconta-13,15(40),19(39),28-tetraene-9,12,18,22,25,30-hexone

> <PUBCHEM_IUPAC_NAME>
(1S,2S,4S,5S,7R,8S,10S,16R,28E,33S,34S,36R)-4,10,33-trihydroxy-1,8,13,28-tetramethyl-11,17,21,26,31-pentaoxadecacyclo[17.17.3.14,8.02,16.05,7.010,14.016,39.033,37.034,36.015,40]tetraconta-13,15(40),19(39),28-tetraene-9,12,18,22,25,30-hexone

> <PUBCHEM_IUPAC_SYSTEMATIC_NAME>
(1S,2S,4S,5S,7R,8S,10S,16R,28E,33S,34S,36R)-1,8,13,28-tetramethyl-4,10,33-tris(oxidanyl)-11,17,21,26,31-pentaoxadecacyclo[17.17.3.14,8.02,16.05,7.010,14.016,39.033,37.034,36.015,40]tetraconta-13,15(40),19(39),28-tetraene-9,12,18,22,25,30-hexone

> <PUBCHEM_IUPAC_TRADITIONAL_NAME>
(1S,2S,4S,5S,7R,8S,10S,16R,28E,33S,34S,36R)-4,10,33-trihydroxy-1,8,13,28-tetramethyl-11,17,21,26,31-pentaoxadecacyclo[17.17.3.14,8.02,16.05,7.010,14.016,39.033,37.034,36.015,40]tetraconta-13,15(40),19(39),28-tetraene-9,12,18,22,25,30-triquinone

> <PUBCHEM_IUPAC_INCHI>
InChI=1S/C39H40O14/c1-15-7-27(42)51-14-37(47)22-8-19(22)34(3)23(37)10-18-17(13-50-26(41)6-5-25(40)49-12-15)32(44)52-38(18)24(34)11-36(46)21-9-20(21)35(4)30(36)29(38)28-16(2)31(43)53-39(28,48)33(35)45/h7,19-24,46-48H,5-6,8-14H2,1-4H3/b15-7+/t19-,20-,21+,22+,23?,24+,34+,35+,36+,37+,38+,39+/m1/s1

> <PUBCHEM_IUPAC_INCHIKEY>
KSKYQRVGRNHBRL-ZXLWUQOCSA-N

> <PUBCHEM_XLOGP3_AA>
-1.5

> <PUBCHEM_EXACT_MASS>
732.241806

> <PUBCHEM_MOLECULAR_FORMULA>
C39H40O14

> <PUBCHEM_MOLECULAR_WEIGHT>
732.7

> <PUBCHEM_OPENEYE_CAN_SMILES>
CC1=CC(=O)OCC2(C3CC3C4(C2CC5=C(COC(=O)CCC(=O)OC1)C(=O)OC56C4CC7(C8CC8C9(C7=C6C1=C(C(=O)OC1(C9=O)O)C)C)O)C)O

> <PUBCHEM_OPENEYE_ISO_SMILES>
C/C/1=C\C(=O)OC[C@@]2([C@H]3C[C@H]3[C@]4(C2CC5=C(COC(=O)CCC(=O)OC1)C(=O)O[C@]56[C@H]4C[C@@]7([C@H]8C[C@H]8[C@]9(C7=C6C1=C(C(=O)O[C@@]1(C9=O)O)C)C)O)C)O

> <PUBCHEM_CACTVS_TPSA>
209

> <PUBCHEM_MONOISOTOPIC_WEIGHT>
732.241806

> <PUBCHEM_TOTAL_CHARGE>
0

> <PUBCHEM_HEAVY_ATOM_COUNT>
53

> <PUBCHEM_ATOM_DEF_STEREO_COUNT>
11

> <PUBCHEM_ATOM_UDEF_STEREO_COUNT>
1

> <PUBCHEM_BOND_DEF_STEREO_COUNT>
1

> <PUBCHEM_BOND_UDEF_STEREO_COUNT>
0

> <PUBCHEM_ISOTOPIC_ATOM_COUNT>
0

> <PUBCHEM_COMPONENT_COUNT>
1

> <PUBCHEM_CACTVS_TAUTO_COUNT>
-1

> <PUBCHEM_COORDINATE_TYPE>
1
5
255

> <PUBCHEM_BONDANNOTATIONS>
24  1  6
15  33  6
16  54  5
17  55  5
18  56  6
19  30  3
20  2  6
23  60  5
25  61  5
27  37  6
22  3  6
38  7  5

$$$$
