10724147
  -OEChem-09292003132D

101105  0     1  0  0  0  0  0999 V2000
    6.9993   -1.7193    0.0000 O   0  0  0  0  0  0  0  0  0  0  0  0
    7.9993   -2.7193    0.0000 O   0  0  0  0  0  0  0  0  0  0  0  0
    6.2673   -2.7193    0.0000 O   0  0  0  0  0  0  0  0  0  0  0  0
    9.2594   -0.4592    0.0000 O   0  0  0  0  0  0  0  0  0  0  0  0
    7.4993    0.8196    0.0000 O   0  0  0  0  0  0  0  0  0  0  0  0
    7.9993   -4.7193    0.0000 O   0  0  0  0  0  0  0  0  0  0  0  0
    9.1583   -3.0065    0.0000 O   0  0  0  0  0  0  0  0  0  0  0  0
    6.2673   -5.7193    0.0000 O   0  0  0  0  0  0  0  0  0  0  0  0
    4.5352   -4.7193    0.0000 O   0  0  0  0  0  0  0  0  0  0  0  0
    5.5313    0.5189    0.0000 O   0  0  0  0  0  0  0  0  0  0  0  0
    3.6692   -3.2193    0.0000 O   0  0  0  0  0  0  0  0  0  0  0  0
    8.7242    1.1881    0.0000 O   0  0  0  0  0  0  0  0  0  0  0  0
    7.1333   -6.2193    0.0000 O   0  0  0  0  0  0  0  0  0  0  0  0
   10.3172   -4.2936    0.0000 O   0  0  0  0  0  0  0  0  0  0  0  0
    3.8371    0.1588    0.0000 O   0  0  0  0  0  0  0  0  0  0  0  0
   14.4305    3.0422    0.0000 O   0  0  0  0  0  0  0  0  0  0  0  0
   14.7761   -0.2788    0.0000 O   0  0  0  0  0  0  0  0  0  0  0  0
    2.5897    6.0277    0.0000 O   0  0  0  0  0  0  0  0  0  0  0  0
    7.9993   -1.7193    0.0000 C   0  0  1  0  0  0  0  0  0  0  0  0
    8.3083   -0.7682    0.0000 C   0  0  2  0  0  0  0  0  0  0  0  0
    7.4993   -0.1804    0.0000 C   0  0  1  0  0  0  0  0  0  0  0  0
    6.6903   -0.7682    0.0000 C   0  0  1  0  0  0  0  0  0  0  0  0
    7.1333   -3.2193    0.0000 C   0  0  1  0  0  0  0  0  0  0  0  0
    7.1333   -4.2193    0.0000 C   0  0  1  0  0  0  0  0  0  0  0  0
    8.9504   -2.0283    0.0000 C   0  0  0  0  0  0  0  0  0  0  0  0
    6.2673   -4.7193    0.0000 C   0  0  2  0  0  0  0  0  0  0  0  0
    5.4012   -4.2193    0.0000 C   0  0  1  0  0  0  0  0  0  0  0  0
    5.4012   -3.2193    0.0000 C   0  0  1  0  0  0  0  0  0  0  0  0
    5.7392   -0.4592    0.0000 C   0  0  0  0  0  0  0  0  0  0  0  0
    4.5352   -2.7193    0.0000 C   0  0  0  0  0  0  0  0  0  0  0  0
    9.4673    0.5189    0.0000 C   0  0  0  0  0  0  0  0  0  0  0  0
    7.9993   -5.7193    0.0000 C   0  0  0  0  0  0  0  0  0  0  0  0
   10.1093   -3.3155    0.0000 C   0  0  0  0  0  0  0  0  0  0  0  0
    4.5803    0.8279    0.0000 C   0  0  0  0  0  0  0  0  0  0  0  0
   10.4184    0.8279    0.0000 C   0  0  0  0  0  0  0  0  0  0  0  0
    8.8653   -6.2193    0.0000 C   0  0  0  0  0  0  0  0  0  0  0  0
   10.8525   -2.6463    0.0000 C   0  0  0  0  0  0  0  0  0  0  0  0
    4.3724    1.8061    0.0000 C   0  0  0  0  0  0  0  0  0  0  0  0
   10.6263    1.8061    0.0000 C   0  0  0  0  0  0  0  0  0  0  0  0
   11.8035   -2.9554    0.0000 C   0  0  0  0  0  0  0  0  0  0  0  0
   11.5773    2.1151    0.0000 C   0  0  0  0  0  0  0  0  0  0  0  0
    3.4213    2.1151    0.0000 C   0  0  0  0  0  0  0  0  0  0  0  0
   12.5467   -2.2862    0.0000 C   0  0  0  0  0  0  0  0  0  0  0  0
   11.7852    3.0933    0.0000 C   0  0  0  0  0  0  0  0  0  0  0  0
   12.3205    1.4460    0.0000 C   0  0  0  0  0  0  0  0  0  0  0  0
    3.2134    3.0933    0.0000 C   0  0  0  0  0  0  0  0  0  0  0  0
   12.3388   -1.3081    0.0000 C   0  0  0  0  0  0  0  0  0  0  0  0
   13.4977   -2.5952    0.0000 C   0  0  0  0  0  0  0  0  0  0  0  0
   12.7363    3.4023    0.0000 C   0  0  0  0  0  0  0  0  0  0  0  0
   13.2715    1.7550    0.0000 C   0  0  0  0  0  0  0  0  0  0  0  0
    2.2623    3.4023    0.0000 C   0  0  0  0  0  0  0  0  0  0  0  0
    3.9565    3.7624    0.0000 C   0  0  0  0  0  0  0  0  0  0  0  0
   13.4794    2.7331    0.0000 C   0  0  0  0  0  0  0  0  0  0  0  0
   13.0819   -0.6390    0.0000 C   0  0  0  0  0  0  0  0  0  0  0  0
   14.2409   -1.9261    0.0000 C   0  0  0  0  0  0  0  0  0  0  0  0
   14.0330   -0.9480    0.0000 C   0  0  0  0  0  0  0  0  0  0  0  0
    2.0544    4.3804    0.0000 C   0  0  0  0  0  0  0  0  0  0  0  0
    3.7486    4.7405    0.0000 C   0  0  0  0  0  0  0  0  0  0  0  0
    2.7976    5.0496    0.0000 C   0  0  0  0  0  0  0  0  0  0  0  0
    8.4053   -0.1559    0.0000 H   0  0  0  0  0  0  0  0  0  0  0  0
    8.0517    0.1010    0.0000 H   0  0  0  0  0  0  0  0  0  0  0  0
    6.2519   -1.2066    0.0000 H   0  0  0  0  0  0  0  0  0  0  0  0
    7.1333   -2.5993    0.0000 H   0  0  0  0  0  0  0  0  0  0  0  0
    7.1333   -4.8393    0.0000 H   0  0  0  0  0  0  0  0  0  0  0  0
    9.5700   -2.0067    0.0000 H   0  0  0  0  0  0  0  0  0  0  0  0
    9.0367   -1.4143    0.0000 H   0  0  0  0  0  0  0  0  0  0  0  0
    5.7303   -5.0293    0.0000 H   0  0  0  0  0  0  0  0  0  0  0  0
    5.4012   -4.8393    0.0000 H   0  0  0  0  0  0  0  0  0  0  0  0
    5.4012   -2.5993    0.0000 H   0  0  0  0  0  0  0  0  0  0  0  0
    5.1196   -0.4809    0.0000 H   0  0  0  0  0  0  0  0  0  0  0  0
    5.6530   -1.0732    0.0000 H   0  0  0  0  0  0  0  0  0  0  0  0
    6.9624    1.1296    0.0000 H   0  0  0  0  0  0  0  0  0  0  0  0
    4.9337   -2.2443    0.0000 H   0  0  0  0  0  0  0  0  0  0  0  0
    4.1367   -2.2443    0.0000 H   0  0  0  0  0  0  0  0  0  0  0  0
    5.7303   -6.0293    0.0000 H   0  0  0  0  0  0  0  0  0  0  0  0
    4.5352   -5.3393    0.0000 H   0  0  0  0  0  0  0  0  0  0  0  0
    3.1322   -2.9093    0.0000 H   0  0  0  0  0  0  0  0  0  0  0  0
   10.8791    0.4131    0.0000 H   0  0  0  0  0  0  0  0  0  0  0  0
    8.5553   -6.7562    0.0000 H   0  0  0  0  0  0  0  0  0  0  0  0
    9.4023   -6.5293    0.0000 H   0  0  0  0  0  0  0  0  0  0  0  0
    9.1753   -5.6824    0.0000 H   0  0  0  0  0  0  0  0  0  0  0  0
   10.7236   -2.0399    0.0000 H   0  0  0  0  0  0  0  0  0  0  0  0
    4.8331    2.2210    0.0000 H   0  0  0  0  0  0  0  0  0  0  0  0
   10.1655    2.2210    0.0000 H   0  0  0  0  0  0  0  0  0  0  0  0
   11.9324   -3.5618    0.0000 H   0  0  0  0  0  0  0  0  0  0  0  0
    2.9606    1.7002    0.0000 H   0  0  0  0  0  0  0  0  0  0  0  0
   11.3245    3.5081    0.0000 H   0  0  0  0  0  0  0  0  0  0  0  0
   12.1916    0.8395    0.0000 H   0  0  0  0  0  0  0  0  0  0  0  0
   11.7491   -1.1165    0.0000 H   0  0  0  0  0  0  0  0  0  0  0  0
   13.6266   -3.2017    0.0000 H   0  0  0  0  0  0  0  0  0  0  0  0
   12.8652    4.0087    0.0000 H   0  0  0  0  0  0  0  0  0  0  0  0
   13.7323    1.3401    0.0000 H   0  0  0  0  0  0  0  0  0  0  0  0
    1.8016    2.9874    0.0000 H   0  0  0  0  0  0  0  0  0  0  0  0
    4.5462    3.5708    0.0000 H   0  0  0  0  0  0  0  0  0  0  0  0
   12.9530   -0.0325    0.0000 H   0  0  0  0  0  0  0  0  0  0  0  0
   14.8305   -2.1177    0.0000 H   0  0  0  0  0  0  0  0  0  0  0  0
    1.4648    4.5720    0.0000 H   0  0  0  0  0  0  0  0  0  0  0  0
    4.2094    5.1554    0.0000 H   0  0  0  0  0  0  0  0  0  0  0  0
   14.5594    3.6486    0.0000 H   0  0  0  0  0  0  0  0  0  0  0  0
   15.3658   -0.4704    0.0000 H   0  0  0  0  0  0  0  0  0  0  0  0
    2.0000    6.2193    0.0000 H   0  0  0  0  0  0  0  0  0  0  0  0
  1 19  1  0  0  0  0
  1 22  1  0  0  0  0
 19  2  1  6  0  0  0
 23  2  1  6  0  0  0
  3 23  1  0  0  0  0
  3 28  1  0  0  0  0
 20  4  1  6  0  0  0
  4 31  1  0  0  0  0
 21  5  1  1  0  0  0
  5 72  1  0  0  0  0
 24  6  1  6  0  0  0
  6 32  1  0  0  0  0
  7 25  1  0  0  0  0
  7 33  1  0  0  0  0
 26  8  1  1  0  0  0
  8 75  1  0  0  0  0
 27  9  1  6  0  0  0
  9 76  1  0  0  0  0
 10 29  1  0  0  0  0
 10 34  1  0  0  0  0
 11 30  1  0  0  0  0
 11 77  1  0  0  0  0
 12 31  2  0  0  0  0
 13 32  2  0  0  0  0
 14 33  2  0  0  0  0
 15 34  2  0  0  0  0
 16 53  1  0  0  0  0
 16 99  1  0  0  0  0
 17 56  1  0  0  0  0
 17100  1  0  0  0  0
 18 59  1  0  0  0  0
 18101  1  0  0  0  0
 19 20  1  0  0  0  0
 19 25  1  0  0  0  0
 20 21  1  0  0  0  0
 20 60  1  0  0  0  0
 21 22  1  0  0  0  0
 21 61  1  0  0  0  0
 22 29  1  6  0  0  0
 22 62  1  0  0  0  0
 23 24  1  0  0  0  0
 23 63  1  0  0  0  0
 24 26  1  0  0  0  0
 24 64  1  0  0  0  0
 25 65  1  0  0  0  0
 25 66  1  0  0  0  0
 26 27  1  0  0  0  0
 26 67  1  0  0  0  0
 27 28  1  0  0  0  0
 27 68  1  0  0  0  0
 28 30  1  1  0  0  0
 28 69  1  0  0  0  0
 29 70  1  0  0  0  0
 29 71  1  0  0  0  0
 30 73  1  0  0  0  0
 30 74  1  0  0  0  0
 31 35  1  0  0  0  0
 32 36  1  0  0  0  0
 33 37  1  0  0  0  0
 34 38  1  0  0  0  0
 35 39  2  0  0  0  0
 35 78  1  0  0  0  0
 36 79  1  0  0  0  0
 36 80  1  0  0  0  0
 36 81  1  0  0  0  0
 37 40  2  0  0  0  0
 37 82  1  0  0  0  0
 38 42  2  0  0  0  0
 38 83  1  0  0  0  0
 39 41  1  0  0  0  0
 39 84  1  0  0  0  0
 40 43  1  0  0  0  0
 40 85  1  0  0  0  0
 41 44  2  0  0  0  0
 41 45  1  0  0  0  0
 42 46  1  0  0  0  0
 42 86  1  0  0  0  0
 43 47  2  0  0  0  0
 43 48  1  0  0  0  0
 44 49  1  0  0  0  0
 44 87  1  0  0  0  0
 45 50  2  0  0  0  0
 45 88  1  0  0  0  0
 46 51  2  0  0  0  0
 46 52  1  0  0  0  0
 47 54  1  0  0  0  0
 47 89  1  0  0  0  0
 48 55  2  0  0  0  0
 48 90  1  0  0  0  0
 49 53  2  0  0  0  0
 49 91  1  0  0  0  0
 50 53  1  0  0  0  0
 50 92  1  0  0  0  0
 51 57  1  0  0  0  0
 51 93  1  0  0  0  0
 52 58  2  0  0  0  0
 52 94  1  0  0  0  0
 54 56  2  0  0  0  0
 54 95  1  0  0  0  0
 55 56  1  0  0  0  0
 55 96  1  0  0  0  0
 57 59  2  0  0  0  0
 57 97  1  0  0  0  0
 58 59  1  0  0  0  0
 58 98  1  0  0  0  0
M  END
> <PUBCHEM_COMPOUND_CID>
10724147

> <PUBCHEM_COMPOUND_CANONICALIZED>
1

> <PUBCHEM_CACTVS_COMPLEXITY>
1480

> <PUBCHEM_CACTVS_HBOND_ACCEPTOR>
18

> <PUBCHEM_CACTVS_HBOND_DONOR>
7

> <PUBCHEM_CACTVS_ROTATABLE_BOND>
19

> <PUBCHEM_CACTVS_SUBSKEYS>
AAADcfB8PgAAAAAAAAAAAAAAAAAAASAAAAA0YMEAAAAAAAABUAAAGgAACAAADBSwmAMyDoAABgCIAiDSCAACAAAgIAAIiAAGCMgZNiKCMRKicAAlwBEPuYfA4AwOIAAAAAAAAABAAAAAAAAAAAAAAAAAAA==

> <PUBCHEM_IUPAC_OPENEYE_NAME>
[(2R,3R,4S,5S)-5-[(2R,3R,4S,5S,6R)-3-acetoxy-4,5-dihydroxy-6-(hydroxymethyl)tetrahydropyran-2-yl]oxy-3-hydroxy-4-[(E)-3-(4-hydroxyphenyl)prop-2-enoyl]oxy-5-[[(E)-3-(4-hydroxyphenyl)prop-2-enoyl]oxymethyl]tetrahydrofuran-2-yl]methyl (E)-3-(4-hydroxyphenyl)prop-2-enoate

> <PUBCHEM_IUPAC_CAS_NAME>
(E)-3-(4-hydroxyphenyl)-2-propenoic acid [(2R,3R,4S,5S)-5-[[(2R,3R,4S,5S,6R)-3-acetyloxy-4,5-dihydroxy-6-(hydroxymethyl)-2-oxanyl]oxy]-3-hydroxy-4-[(E)-3-(4-hydroxyphenyl)-1-oxoprop-2-enoxy]-5-[[(E)-3-(4-hydroxyphenyl)-1-oxoprop-2-enoxy]methyl]-2-oxolanyl]methyl ester

> <PUBCHEM_IUPAC_NAME_MARKUP>
[(2<I>R</I>,3<I>R</I>,4<I>S</I>,5<I>S</I>)-5-[(2<I>R</I>,3<I>R</I>,4<I>S</I>,5<I>S</I>,6<I>R</I>)-3-acetyloxy-4,5-dihydroxy-6-(hydroxymethyl)oxan-2-yl]oxy-3-hydroxy-4-[(<I>E</I>)-3-(4-hydroxyphenyl)prop-2-enoyl]oxy-5-[[(<I>E</I>)-3-(4-hydroxyphenyl)prop-2-enoyl]oxymethyl]oxolan-2-yl]methyl (<I>E</I>)-3-(4-hydroxyphenyl)prop-2-enoate

> <PUBCHEM_IUPAC_NAME>
[(2R,3R,4S,5S)-5-[(2R,3R,4S,5S,6R)-3-acetyloxy-4,5-dihydroxy-6-(hydroxymethyl)oxan-2-yl]oxy-3-hydroxy-4-[(E)-3-(4-hydroxyphenyl)prop-2-enoyl]oxy-5-[[(E)-3-(4-hydroxyphenyl)prop-2-enoyl]oxymethyl]oxolan-2-yl]methyl (E)-3-(4-hydroxyphenyl)prop-2-enoate

> <PUBCHEM_IUPAC_SYSTEMATIC_NAME>
[(2R,3R,4S,5S)-5-[(2R,3R,4S,5S,6R)-3-acetyloxy-6-(hydroxymethyl)-4,5-bis(oxidanyl)oxan-2-yl]oxy-4-[(E)-3-(4-hydroxyphenyl)prop-2-enoyl]oxy-5-[[(E)-3-(4-hydroxyphenyl)prop-2-enoyl]oxymethyl]-3-oxidanyl-oxolan-2-yl]methyl (E)-3-(4-hydroxyphenyl)prop-2-enoate

> <PUBCHEM_IUPAC_TRADITIONAL_NAME>
(E)-3-(4-hydroxyphenyl)acrylic acid [(2R,3R,4S,5S)-5-[(2R,3R,4S,5S,6R)-3-acetoxy-4,5-dihydroxy-6-methylol-tetrahydropyran-2-yl]oxy-3-hydroxy-4-[(E)-3-(4-hydroxyphenyl)acryloyl]oxy-5-[[(E)-3-(4-hydroxyphenyl)acryloyl]oxymethyl]tetrahydrofuran-2-yl]methyl ester

> <PUBCHEM_IUPAC_INCHI>
InChI=1S/C41H42O18/c1-23(43)55-38-37(52)35(50)30(20-42)56-40(38)59-41(22-54-33(48)18-9-25-4-13-28(45)14-5-25)39(57-34(49)19-10-26-6-15-29(46)16-7-26)36(51)31(58-41)21-53-32(47)17-8-24-2-11-27(44)12-3-24/h2-19,30-31,35-40,42,44-46,50-52H,20-22H2,1H3/b17-8+,18-9+,19-10+/t30-,31-,35-,36-,37+,38-,39+,40-,41+/m1/s1

> <PUBCHEM_IUPAC_INCHIKEY>
NKKOIXYEPDCYKT-BHKQRIGNSA-N

> <PUBCHEM_XLOGP3_AA>
2.5

> <PUBCHEM_EXACT_MASS>
822.237115

> <PUBCHEM_MOLECULAR_FORMULA>
C41H42O18

> <PUBCHEM_MOLECULAR_WEIGHT>
822.8

> <PUBCHEM_OPENEYE_CAN_SMILES>
CC(=O)OC1C(C(C(OC1OC2(C(C(C(O2)COC(=O)C=CC3=CC=C(C=C3)O)O)OC(=O)C=CC4=CC=C(C=C4)O)COC(=O)C=CC5=CC=C(C=C5)O)CO)O)O

> <PUBCHEM_OPENEYE_ISO_SMILES>
CC(=O)O[C@@H]1[C@H]([C@@H]([C@H](O[C@@H]1O[C@]2([C@H]([C@@H]([C@H](O2)COC(=O)/C=C/C3=CC=C(C=C3)O)O)OC(=O)/C=C/C4=CC=C(C=C4)O)COC(=O)/C=C/C5=CC=C(C=C5)O)CO)O)O

> <PUBCHEM_CACTVS_TPSA>
275

> <PUBCHEM_MONOISOTOPIC_WEIGHT>
822.237115

> <PUBCHEM_TOTAL_CHARGE>
0

> <PUBCHEM_HEAVY_ATOM_COUNT>
59

> <PUBCHEM_ATOM_DEF_STEREO_COUNT>
9

> <PUBCHEM_ATOM_UDEF_STEREO_COUNT>
0

> <PUBCHEM_BOND_DEF_STEREO_COUNT>
3

> <PUBCHEM_BOND_UDEF_STEREO_COUNT>
0

> <PUBCHEM_ISOTOPIC_ATOM_COUNT>
0

> <PUBCHEM_COMPONENT_COUNT>
1

> <PUBCHEM_CACTVS_TAUTO_COUNT>
-1

> <PUBCHEM_COORDINATE_TYPE>
1
5
255

> <PUBCHEM_BONDANNOTATIONS>
19  2  6
23  2  6
22  29  6
28  30  5
20  4  6
41  44  8
41  45  8
43  47  8
43  48  8
44  49  8
45  50  8
46  51  8
46  52  8
47  54  8
48  55  8
49  53  8
21  5  5
50  53  8
51  57  8
52  58  8
54  56  8
55  56  8
57  59  8
58  59  8
24  6  6
26  8  5
27  9  6

$$$$
