102501911
  -OEChem-09172005012D

 37 41  0     1  0  0  0  0  0999 V2000
    3.5819   -1.5436    0.0000 O   0  0  0  0  0  0  0  0  0  0  0  0
    3.3311    1.4659    0.0000 O   0  0  0  0  0  0  0  0  0  0  0  0
    4.0825    1.8910    0.0000 O   0  0  0  0  0  0  0  0  0  0  0  0
    6.0970    1.5159    0.0000 O   0  0  0  0  0  0  0  0  0  0  0  0
    5.4149    2.3485    0.0000 O   0  0  0  0  0  0  0  0  0  0  0  0
    2.0000   -2.3517    0.0000 O   0  0  0  0  0  0  0  0  0  0  0  0
    8.7945   -0.9357    0.0000 O   0  0  0  0  0  0  0  0  0  0  0  0
    3.8915   -0.5989    0.0000 C   0  0  1  0  0  0  0  0  0  0  0  0
    3.0825   -0.0111    0.0000 C   0  0  2  0  0  0  0  0  0  0  0  0
    4.7005   -0.0111    0.0000 C   0  0  1  0  0  0  0  0  0  0  0  0
    4.3915    0.9399    0.0000 C   0  0  2  0  0  0  0  0  0  0  0  0
    3.3915    0.9399    0.0000 C   0  0  0  0  0  0  0  0  0  0  0  0
    5.2194    0.0939    0.0000 C   0  0  0  0  0  0  0  0  0  0  0  0
    2.2798   -0.5975    0.0000 C   0  0  0  0  0  0  0  0  0  0  0  0
    5.0765    1.7246    0.0000 C   0  0  0  0  0  0  0  0  0  0  0  0
    5.7159   -0.2434    0.0000 C   0  0  0  0  0  0  0  0  0  0  0  0
    4.8271    1.5394    0.0000 C   0  0  0  0  0  0  0  0  0  0  0  0
    2.5878   -1.5427    0.0000 C   0  0  0  0  0  0  0  0  0  0  0  0
    6.4189    0.5253    0.0000 C   0  0  0  0  0  0  0  0  0  0  0  0
    6.0273   -1.2828    0.0000 C   0  0  0  0  0  0  0  0  0  0  0  0
    7.4819    0.3079    0.0000 C   0  0  0  0  0  0  0  0  0  0  0  0
    7.0849   -1.5247    0.0000 C   0  0  0  0  0  0  0  0  0  0  0  0
    7.8171   -0.7240    0.0000 C   0  0  0  0  0  0  0  0  0  0  0  0
    5.2741    0.6161    0.0000 H   0  0  0  0  0  0  0  0  0  0  0  0
    3.4563    1.5565    0.0000 H   0  0  0  0  0  0  0  0  0  0  0  0
    2.7850    1.0688    0.0000 H   0  0  0  0  0  0  0  0  0  0  0  0
    5.4660   -0.4749    0.0000 H   0  0  0  0  0  0  0  0  0  0  0  0
    5.8045    0.2989    0.0000 H   0  0  0  0  0  0  0  0  0  0  0  0
    1.9687   -0.0612    0.0000 H   0  0  0  0  0  0  0  0  0  0  0  0
    1.7138   -0.8505    0.0000 H   0  0  0  0  0  0  0  0  0  0  0  0
    5.3028    2.3019    0.0000 H   0  0  0  0  0  0  0  0  0  0  0  0
    4.5465    2.0464    0.0000 H   0  0  0  0  0  0  0  0  0  0  0  0
    4.4974    2.3517    0.0000 H   0  0  0  0  0  0  0  0  0  0  0  0
    5.6036   -1.7354    0.0000 H   0  0  0  0  0  0  0  0  0  0  0  0
    7.8949    0.7702    0.0000 H   0  0  0  0  0  0  0  0  0  0  0  0
    7.2697   -2.1165    0.0000 H   0  0  0  0  0  0  0  0  0  0  0  0
    8.9838   -1.5261    0.0000 H   0  0  0  0  0  0  0  0  0  0  0  0
  8  1  1  1  0  0  0
  1 18  1  0  0  0  0
  9  2  1  1  0  0  0
  2 17  1  0  0  0  0
 11  3  1  6  0  0  0
  3 33  1  0  0  0  0
  4 15  1  0  0  0  0
  4 19  1  0  0  0  0
  5 17  2  0  0  0  0
  6 18  2  0  0  0  0
  7 23  1  0  0  0  0
  7 37  1  0  0  0  0
  8  9  1  0  0  0  0
  8 10  1  0  0  0  0
  8 13  1  0  0  0  0
  9 12  1  0  0  0  0
  9 14  1  0  0  0  0
 10 11  1  0  0  0  0
 10 16  1  0  0  0  0
 10 24  1  6  0  0  0
 11 12  1  0  0  0  0
 11 15  1  0  0  0  0
 12 25  1  0  0  0  0
 12 26  1  0  0  0  0
 13 17  1  0  0  0  0
 13 27  1  0  0  0  0
 13 28  1  0  0  0  0
 14 18  1  0  0  0  0
 14 29  1  0  0  0  0
 14 30  1  0  0  0  0
 15 31  1  0  0  0  0
 15 32  1  0  0  0  0
 16 19  2  0  0  0  0
 16 20  1  0  0  0  0
 19 21  1  0  0  0  0
 20 22  2  0  0  0  0
 20 34  1  0  0  0  0
 21 23  2  0  0  0  0
 21 35  1  0  0  0  0
 22 23  1  0  0  0  0
 22 36  1  0  0  0  0
M  END
> <PUBCHEM_COMPOUND_CID>
102501911

> <PUBCHEM_COMPOUND_CANONICALIZED>
1

> <PUBCHEM_CACTVS_COMPLEXITY>
605

> <PUBCHEM_CACTVS_HBOND_ACCEPTOR>
7

> <PUBCHEM_CACTVS_HBOND_DONOR>
2

> <PUBCHEM_CACTVS_ROTATABLE_BOND>
0

> <PUBCHEM_CACTVS_SUBSKEYS>
AAADccB4OAAAAAAAAAAAAAAAAAAAAaJEAAA0QAAAAAASJEiRAAAAGgAACAAADUSgmAIwDoAABgCIAiDSCAACCAAgIAAIiAEGCIgNJzaGMRqCeCCl4BULuAfK7PzOoAAACAAIAABAAAAQABAAAYQADCAAAA==

> <PUBCHEM_IUPAC_OPENEYE_NAME>
(1R,2R,11S,13R)-6,11-dihydroxy-9,14,17-trioxapentacyclo[11.3.3.01,13.02,11.03,8]nonadeca-3(8),4,6-triene-15,18-dione

> <PUBCHEM_IUPAC_CAS_NAME>
(1R,2R,11S,13R)-6,11-dihydroxy-9,14,17-trioxapentacyclo[11.3.3.01,13.02,11.03,8]nonadeca-3(8),4,6-triene-15,18-dione

> <PUBCHEM_IUPAC_NAME_MARKUP>
(1<I>R</I>,2<I>R</I>,11<I>S</I>,13<I>R</I>)-6,11-dihydroxy-9,14,17-trioxapentacyclo[11.3.3.0<SUP>1,13</SUP>.0<SUP>2,11</SUP>.0<SUP>3,8</SUP>]nonadeca-3(8),4,6-triene-15,18-dione

> <PUBCHEM_IUPAC_NAME>
(1R,2R,11S,13R)-6,11-dihydroxy-9,14,17-trioxapentacyclo[11.3.3.01,13.02,11.03,8]nonadeca-3(8),4,6-triene-15,18-dione

> <PUBCHEM_IUPAC_SYSTEMATIC_NAME>
(1R,2R,11S,13R)-6,11-bis(oxidanyl)-9,14,17-trioxapentacyclo[11.3.3.01,13.02,11.03,8]nonadeca-3(8),4,6-triene-15,18-dione

> <PUBCHEM_IUPAC_TRADITIONAL_NAME>
(1R,2R,11S,13R)-6,11-dihydroxy-9,14,17-trioxapentacyclo[11.3.3.01,13.02,11.03,8]nonadeca-3(8),4,6-triene-15,18-quinone

> <PUBCHEM_IUPAC_INCHI>
InChI=1S/C16H14O7/c17-8-1-2-9-10(3-8)21-7-14(20)6-15-4-11(18)23-16(15,13(9)14)5-12(19)22-15/h1-3,13,17,20H,4-7H2/t13-,14-,15+,16-/m1/s1

> <PUBCHEM_IUPAC_INCHIKEY>
QWXRYLMIAVBHJK-LVQVYYBASA-N

> <PUBCHEM_XLOGP3_AA>
-0.3

> <PUBCHEM_EXACT_MASS>
318.073953

> <PUBCHEM_MOLECULAR_FORMULA>
C16H14O7

> <PUBCHEM_MOLECULAR_WEIGHT>
318.28

> <PUBCHEM_OPENEYE_CAN_SMILES>
C1C(=O)OC23C1(CC4(C2C5=C(C=C(C=C5)O)OC4)O)OC(=O)C3

> <PUBCHEM_OPENEYE_ISO_SMILES>
C1C(=O)O[C@@]23[C@]1(C[C@@]4([C@H]2C5=C(C=C(C=C5)O)OC4)O)OC(=O)C3

> <PUBCHEM_CACTVS_TPSA>
102

> <PUBCHEM_MONOISOTOPIC_WEIGHT>
318.073953

> <PUBCHEM_TOTAL_CHARGE>
0

> <PUBCHEM_HEAVY_ATOM_COUNT>
23

> <PUBCHEM_ATOM_DEF_STEREO_COUNT>
4

> <PUBCHEM_ATOM_UDEF_STEREO_COUNT>
0

> <PUBCHEM_BOND_DEF_STEREO_COUNT>
0

> <PUBCHEM_BOND_UDEF_STEREO_COUNT>
0

> <PUBCHEM_ISOTOPIC_ATOM_COUNT>
0

> <PUBCHEM_COMPONENT_COUNT>
1

> <PUBCHEM_CACTVS_TAUTO_COUNT>
-1

> <PUBCHEM_COORDINATE_TYPE>
1
5
255

> <PUBCHEM_BONDANNOTATIONS>
8  1  5
10  24  6
16  19  8
16  20  8
19  21  8
9  2  5
20  22  8
21  23  8
22  23  8
11  3  6

$$$$
