636655
  -OEChem-11222001282D

 47 51  0     1  0  0  0  0  0999 V2000
    8.4646    2.7455    0.0000 O   0  0  0  0  0  0  0  0  0  0  0  0
    8.1297   -2.6074    0.0000 O   0  0  0  0  0  0  0  0  0  0  0  0
    6.5117    0.1950    0.0000 N   0  0  3  0  0  0  0  0  0  0  0  0
    4.2558   -0.2392    0.0000 N   0  0  0  0  0  0  0  0  0  0  0  0
    6.5117   -1.5416    0.0000 C   0  0  3  0  0  0  0  0  0  0  0  0
    6.5117    1.0633    0.0000 C   0  0  3  0  0  0  0  0  0  0  0  0
    7.2636    1.4974    0.0000 C   0  0  3  0  0  0  0  0  0  0  0  0
    7.2636   -1.1074    0.0000 C   0  0  3  0  0  0  0  0  0  0  0  0
    5.7597   -0.2392    0.0000 C   0  0  3  0  0  0  0  0  0  0  0  0
    7.2636   -0.2392    0.0000 C   0  0  3  0  0  0  0  0  0  0  0  0
    5.7597   -1.1074    0.0000 C   0  0  0  0  0  0  0  0  0  0  0  0
    5.7597    1.4974    0.0000 C   0  0  0  0  0  0  0  0  0  0  0  0
    5.0078    0.1950    0.0000 C   0  0  0  0  0  0  0  0  0  0  0  0
    5.0078    1.0633    0.0000 C   0  0  0  0  0  0  0  0  0  0  0  0
    8.2244    1.7747    0.0000 C   0  0  0  0  0  0  0  0  0  0  0  0
    8.1297   -1.6074    0.0000 C   0  0  0  0  0  0  0  0  0  0  0  0
    8.1297    0.2608    0.0000 C   0  0  0  0  0  0  0  0  0  0  0  0
    3.5039    1.0633    0.0000 C   0  0  0  0  0  0  0  0  0  0  0  0
    3.5039    0.1950    0.0000 C   0  0  0  0  0  0  0  0  0  0  0  0
    2.7520    1.4974    0.0000 C   0  0  0  0  0  0  0  0  0  0  0  0
    2.7520   -0.2392    0.0000 C   0  0  0  0  0  0  0  0  0  0  0  0
    2.0000    1.0633    0.0000 C   0  0  0  0  0  0  0  0  0  0  0  0
    2.0000    0.1950    0.0000 C   0  0  0  0  0  0  0  0  0  0  0  0
    6.5117   -2.1616    0.0000 H   0  0  0  0  0  0  0  0  0  0  0  0
    6.5117    1.6833    0.0000 H   0  0  0  0  0  0  0  0  0  0  0  0
    7.0209    2.0679    0.0000 H   0  0  0  0  0  0  0  0  0  0  0  0
    7.2636   -1.7274    0.0000 H   0  0  0  0  0  0  0  0  0  0  0  0
    5.2228   -0.5492    0.0000 H   0  0  0  0  0  0  0  0  0  0  0  0
    7.2636    0.3808    0.0000 H   0  0  0  0  0  0  0  0  0  0  0  0
    5.1492   -0.9998    0.0000 H   0  0  0  0  0  0  0  0  0  0  0  0
    5.5477   -1.6900    0.0000 H   0  0  0  0  0  0  0  0  0  0  0  0
    6.1583    1.9723    0.0000 H   0  0  0  0  0  0  0  0  0  0  0  0
    5.3612    1.9723    0.0000 H   0  0  0  0  0  0  0  0  0  0  0  0
    8.2903    1.1582    0.0000 H   0  0  0  0  0  0  0  0  0  0  0  0
    8.8430    1.7326    0.0000 H   0  0  0  0  0  0  0  0  0  0  0  0
    8.7402   -1.7151    0.0000 H   0  0  0  0  0  0  0  0  0  0  0  0
    8.3417   -1.0248    0.0000 H   0  0  0  0  0  0  0  0  0  0  0  0
    8.4397   -0.2761    0.0000 H   0  0  0  0  0  0  0  0  0  0  0  0
    8.6666    0.5708    0.0000 H   0  0  0  0  0  0  0  0  0  0  0  0
    7.8197    0.7978    0.0000 H   0  0  0  0  0  0  0  0  0  0  0  0
    4.2558   -0.8592    0.0000 H   0  0  0  0  0  0  0  0  0  0  0  0
    9.0603    2.9174    0.0000 H   0  0  0  0  0  0  0  0  0  0  0  0
    8.6666   -2.9174    0.0000 H   0  0  0  0  0  0  0  0  0  0  0  0
    2.7520    2.1174    0.0000 H   0  0  0  0  0  0  0  0  0  0  0  0
    2.7520   -0.8592    0.0000 H   0  0  0  0  0  0  0  0  0  0  0  0
    1.4631    1.3733    0.0000 H   0  0  0  0  0  0  0  0  0  0  0  0
    1.4631   -0.1150    0.0000 H   0  0  0  0  0  0  0  0  0  0  0  0
  1 15  1  0  0  0  0
  1 42  1  0  0  0  0
  2 16  1  0  0  0  0
  2 43  1  0  0  0  0
  3  6  1  0  0  0  0
  3  9  1  0  0  0  0
  3 10  1  0  0  0  0
  4 13  1  0  0  0  0
  4 19  1  0  0  0  0
  4 41  1  0  0  0  0
  5  7  1  0  0  0  0
  5  8  1  0  0  0  0
  5 11  1  0  0  0  0
  5 24  1  0  0  0  0
  6  7  1  0  0  0  0
  6 12  1  0  0  0  0
  6 25  1  0  0  0  0
  7 15  1  0  0  0  0
  7 26  1  0  0  0  0
  8 10  1  0  0  0  0
  8 16  1  0  0  0  0
  8 27  1  0  0  0  0
  9 11  1  0  0  0  0
  9 13  1  0  0  0  0
  9 28  1  0  0  0  0
 10 17  1  0  0  0  0
 10 29  1  0  0  0  0
 11 30  1  0  0  0  0
 11 31  1  0  0  0  0
 12 14  1  0  0  0  0
 12 32  1  0  0  0  0
 12 33  1  0  0  0  0
 13 14  2  0  0  0  0
 14 18  1  0  0  0  0
 15 34  1  0  0  0  0
 15 35  1  0  0  0  0
 16 36  1  0  0  0  0
 16 37  1  0  0  0  0
 17 38  1  0  0  0  0
 17 39  1  0  0  0  0
 17 40  1  0  0  0  0
 18 19  1  0  0  0  0
 18 20  2  0  0  0  0
 19 21  2  0  0  0  0
 20 22  1  0  0  0  0
 20 44  1  0  0  0  0
 21 23  1  0  0  0  0
 21 45  1  0  0  0  0
 22 23  2  0  0  0  0
 22 46  1  0  0  0  0
 23 47  1  0  0  0  0
M  END
> <PUBCHEM_COMPOUND_CID>
636655

> <PUBCHEM_COMPOUND_CANONICALIZED>
1

> <PUBCHEM_CACTVS_COMPLEXITY>
472

> <PUBCHEM_CACTVS_HBOND_ACCEPTOR>
3

> <PUBCHEM_CACTVS_HBOND_DONOR>
3

> <PUBCHEM_CACTVS_ROTATABLE_BOND>
2

> <PUBCHEM_CACTVS_SUBSKEYS>
AAADceB7MAAAAAAAAAAAAAAAAAAAAWAAAAA8WLFiAAAYAFgB8AAAHgAQCAAADSjhngYywPPJkgCgAyRiRACCgCAhAiAImSA4ZJgIcOLAkZGUYAhmkADIyAeQ8PMOgAAAAAACAAAAAAAAAAQAAAAAAAAAAA==

> <PUBCHEM_IUPAC_OPENEYE_NAME>
[13-(hydroxymethyl)-16-methyl-3,17-diazapentacyclo[12.3.1.02,10.04,9.012,17]octadeca-2(10),4,6,8-tetraen-15-yl]methanol

> <PUBCHEM_IUPAC_CAS_NAME>
[13-(hydroxymethyl)-16-methyl-3,17-diazapentacyclo[12.3.1.02,10.04,9.012,17]octadeca-2(10),4,6,8-tetraen-15-yl]methanol

> <PUBCHEM_IUPAC_NAME_MARKUP>
[13-(hydroxymethyl)-16-methyl-3,17-diazapentacyclo[12.3.1.0<SUP>2,10</SUP>.0<SUP>4,9</SUP>.0<SUP>12,17</SUP>]octadeca-2(10),4,6,8-tetraen-15-yl]methanol

> <PUBCHEM_IUPAC_NAME>
[13-(hydroxymethyl)-16-methyl-3,17-diazapentacyclo[12.3.1.02,10.04,9.012,17]octadeca-2(10),4,6,8-tetraen-15-yl]methanol

> <PUBCHEM_IUPAC_SYSTEMATIC_NAME>
[13-(hydroxymethyl)-16-methyl-3,17-diazapentacyclo[12.3.1.02,10.04,9.012,17]octadeca-2(10),4,6,8-tetraen-15-yl]methanol

> <PUBCHEM_IUPAC_TRADITIONAL_NAME>
(16-methyl-13-methylol-3,17-diazapentacyclo[12.3.1.02,10.04,9.012,17]octadeca-2(10),4,6,8-tetraen-15-yl)methanol

> <PUBCHEM_IUPAC_INCHI>
InChI=1S/C19H24N2O2/c1-10-14(8-22)12-6-18-19-13(7-17(21(10)18)15(12)9-23)11-4-2-3-5-16(11)20-19/h2-5,10,12,14-15,17-18,20,22-23H,6-9H2,1H3

> <PUBCHEM_IUPAC_INCHIKEY>
PBLXNPSLWYWTKM-UHFFFAOYSA-N

> <PUBCHEM_XLOGP3_AA>
1.8

> <PUBCHEM_EXACT_MASS>
312.183778

> <PUBCHEM_MOLECULAR_FORMULA>
C19H24N2O2

> <PUBCHEM_MOLECULAR_WEIGHT>
312.4

> <PUBCHEM_OPENEYE_CAN_SMILES>
CC1C(C2CC3N1C(C2CO)CC4=C3NC5=CC=CC=C45)CO

> <PUBCHEM_OPENEYE_ISO_SMILES>
CC1C(C2CC3N1C(C2CO)CC4=C3NC5=CC=CC=C45)CO

> <PUBCHEM_CACTVS_TPSA>
59.5

> <PUBCHEM_MONOISOTOPIC_WEIGHT>
312.183778

> <PUBCHEM_TOTAL_CHARGE>
0

> <PUBCHEM_HEAVY_ATOM_COUNT>
23

> <PUBCHEM_ATOM_DEF_STEREO_COUNT>
0

> <PUBCHEM_ATOM_UDEF_STEREO_COUNT>
6

> <PUBCHEM_BOND_DEF_STEREO_COUNT>
0

> <PUBCHEM_BOND_UDEF_STEREO_COUNT>
0

> <PUBCHEM_ISOTOPIC_ATOM_COUNT>
0

> <PUBCHEM_COMPONENT_COUNT>
1

> <PUBCHEM_CACTVS_TAUTO_COUNT>
-1

> <PUBCHEM_COORDINATE_TYPE>
1
5
255

> <PUBCHEM_BONDANNOTATIONS>
10  17  3
13  14  8
14  18  8
18  19  8
18  20  8
19  21  8
20  22  8
21  23  8
22  23  8
4  13  8
4  19  8
5  11  3
6  12  3
7  15  3
8  16  3
9  11  3

$$$$
