592475
  -OEChem-09192005242D

 61 63  0     1  0  0  0  0  0999 V2000
    6.8671   -1.8450    0.0000 O   0  0  0  0  0  0  0  0  0  0  0  0
    5.1350   -1.8450    0.0000 O   0  0  0  0  0  0  0  0  0  0  0  0
    6.0010    0.6550    0.0000 O   0  0  0  0  0  0  0  0  0  0  0  0
    8.5991   -0.8450    0.0000 O   0  0  0  0  0  0  0  0  0  0  0  0
    6.8671   -3.8450    0.0000 O   0  0  0  0  0  0  0  0  0  0  0  0
    8.5991    1.1550    0.0000 O   0  0  0  0  0  0  0  0  0  0  0  0
    5.1350   -4.8450    0.0000 O   0  0  0  0  0  0  0  0  0  0  0  0
    6.8671    2.1550    0.0000 O   0  0  0  0  0  0  0  0  0  0  0  0
    3.4030   -3.8450    0.0000 O   0  0  0  0  0  0  0  0  0  0  0  0
    4.2690   -0.3450    0.0000 O   0  0  0  0  0  0  0  0  0  0  0  0
    2.5369   -2.3450    0.0000 O   0  0  0  0  0  0  0  0  0  0  0  0
    6.8671    4.1550    0.0000 O   0  0  0  0  0  0  0  0  0  0  0  0
    3.4030    5.1550    0.0000 O   0  0  0  0  0  0  0  0  0  0  0  0
    6.8671   -0.8450    0.0000 C   0  0  3  0  0  0  0  0  0  0  0  0
    7.7331   -0.3450    0.0000 C   0  0  3  0  0  0  0  0  0  0  0  0
    6.0010   -0.3450    0.0000 C   0  0  3  0  0  0  0  0  0  0  0  0
    6.0010   -2.3450    0.0000 C   0  0  3  0  0  0  0  0  0  0  0  0
    6.0010   -3.3450    0.0000 C   0  0  3  0  0  0  0  0  0  0  0  0
    7.7331    0.6550    0.0000 C   0  0  3  0  0  0  0  0  0  0  0  0
    5.1350   -3.8450    0.0000 C   0  0  3  0  0  0  0  0  0  0  0  0
    4.2690   -3.3450    0.0000 C   0  0  3  0  0  0  0  0  0  0  0  0
    4.2690   -2.3450    0.0000 C   0  0  3  0  0  0  0  0  0  0  0  0
    6.8671    1.1550    0.0000 C   0  0  3  0  0  0  0  0  0  0  0  0
    5.1350   -0.8450    0.0000 C   0  0  0  0  0  0  0  0  0  0  0  0
    3.4030   -1.8450    0.0000 C   0  0  0  0  0  0  0  0  0  0  0  0
    6.0010    2.6550    0.0000 C   0  0  0  0  0  0  0  0  0  0  0  0
    6.0010    3.6550    0.0000 C   0  0  0  0  0  0  0  0  0  0  0  0
    5.1350    2.1550    0.0000 C   0  0  0  0  0  0  0  0  0  0  0  0
    5.1350    4.1550    0.0000 C   0  0  0  0  0  0  0  0  0  0  0  0
    4.2690    2.6550    0.0000 C   0  0  0  0  0  0  0  0  0  0  0  0
    4.2690    3.6550    0.0000 C   0  0  0  0  0  0  0  0  0  0  0  0
    3.4030    4.1550    0.0000 C   0  0  0  0  0  0  0  0  0  0  0  0
    6.8671    5.1550    0.0000 C   0  0  0  0  0  0  0  0  0  0  0  0
    7.4040   -1.1550    0.0000 H   0  0  0  0  0  0  0  0  0  0  0  0
    7.7331   -0.9650    0.0000 H   0  0  0  0  0  0  0  0  0  0  0  0
    5.4641   -0.0350    0.0000 H   0  0  0  0  0  0  0  0  0  0  0  0
    6.0010   -1.7250    0.0000 H   0  0  0  0  0  0  0  0  0  0  0  0
    6.0010   -3.9650    0.0000 H   0  0  0  0  0  0  0  0  0  0  0  0
    8.2700    0.3450    0.0000 H   0  0  0  0  0  0  0  0  0  0  0  0
    4.5981   -4.1550    0.0000 H   0  0  0  0  0  0  0  0  0  0  0  0
    4.2690   -3.9650    0.0000 H   0  0  0  0  0  0  0  0  0  0  0  0
    4.2690   -1.7250    0.0000 H   0  0  0  0  0  0  0  0  0  0  0  0
    7.4040    1.4650    0.0000 H   0  0  0  0  0  0  0  0  0  0  0  0
    4.7365   -1.3200    0.0000 H   0  0  0  0  0  0  0  0  0  0  0  0
    5.5335   -1.3200    0.0000 H   0  0  0  0  0  0  0  0  0  0  0  0
    3.8015   -1.3700    0.0000 H   0  0  0  0  0  0  0  0  0  0  0  0
    3.0044   -1.3700    0.0000 H   0  0  0  0  0  0  0  0  0  0  0  0
    9.1360   -0.5350    0.0000 H   0  0  0  0  0  0  0  0  0  0  0  0
    6.8671   -4.4650    0.0000 H   0  0  0  0  0  0  0  0  0  0  0  0
    8.5991    1.7750    0.0000 H   0  0  0  0  0  0  0  0  0  0  0  0
    4.5981   -5.1550    0.0000 H   0  0  0  0  0  0  0  0  0  0  0  0
    3.4030   -4.4650    0.0000 H   0  0  0  0  0  0  0  0  0  0  0  0
    4.2690    0.2750    0.0000 H   0  0  0  0  0  0  0  0  0  0  0  0
    2.0000   -2.0350    0.0000 H   0  0  0  0  0  0  0  0  0  0  0  0
    5.1350    1.5350    0.0000 H   0  0  0  0  0  0  0  0  0  0  0  0
    5.1350    4.7750    0.0000 H   0  0  0  0  0  0  0  0  0  0  0  0
    3.7320    2.3450    0.0000 H   0  0  0  0  0  0  0  0  0  0  0  0
    2.8660    3.8450    0.0000 H   0  0  0  0  0  0  0  0  0  0  0  0
    7.4871    5.1550    0.0000 H   0  0  0  0  0  0  0  0  0  0  0  0
    6.8671    5.7750    0.0000 H   0  0  0  0  0  0  0  0  0  0  0  0
    6.2471    5.1550    0.0000 H   0  0  0  0  0  0  0  0  0  0  0  0
  1 14  1  0  0  0  0
  1 17  1  0  0  0  0
  2 17  1  0  0  0  0
  2 22  1  0  0  0  0
  3 16  1  0  0  0  0
  3 23  1  0  0  0  0
  4 15  1  0  0  0  0
  4 48  1  0  0  0  0
  5 18  1  0  0  0  0
  5 49  1  0  0  0  0
  6 19  1  0  0  0  0
  6 50  1  0  0  0  0
  7 20  1  0  0  0  0
  7 51  1  0  0  0  0
  8 23  1  0  0  0  0
  8 26  1  0  0  0  0
  9 21  1  0  0  0  0
  9 52  1  0  0  0  0
 10 24  1  0  0  0  0
 10 53  1  0  0  0  0
 11 25  1  0  0  0  0
 11 54  1  0  0  0  0
 12 27  1  0  0  0  0
 12 33  1  0  0  0  0
 13 32  2  0  0  0  0
 14 15  1  0  0  0  0
 14 16  1  0  0  0  0
 14 34  1  0  0  0  0
 15 19  1  0  0  0  0
 15 35  1  0  0  0  0
 16 24  1  0  0  0  0
 16 36  1  0  0  0  0
 17 18  1  0  0  0  0
 17 37  1  0  0  0  0
 18 20  1  0  0  0  0
 18 38  1  0  0  0  0
 19 23  1  0  0  0  0
 19 39  1  0  0  0  0
 20 21  1  0  0  0  0
 20 40  1  0  0  0  0
 21 22  1  0  0  0  0
 21 41  1  0  0  0  0
 22 25  1  0  0  0  0
 22 42  1  0  0  0  0
 23 43  1  0  0  0  0
 24 44  1  0  0  0  0
 24 45  1  0  0  0  0
 25 46  1  0  0  0  0
 25 47  1  0  0  0  0
 26 27  2  0  0  0  0
 26 28  1  0  0  0  0
 27 29  1  0  0  0  0
 28 30  2  0  0  0  0
 28 55  1  0  0  0  0
 29 31  2  0  0  0  0
 29 56  1  0  0  0  0
 30 31  1  0  0  0  0
 30 57  1  0  0  0  0
 31 32  1  0  0  0  0
 32 58  1  0  0  0  0
 33 59  1  0  0  0  0
 33 60  1  0  0  0  0
 33 61  1  0  0  0  0
M  END
> <PUBCHEM_COMPOUND_CID>
592475

> <PUBCHEM_COMPOUND_CANONICALIZED>
1

> <PUBCHEM_CACTVS_COMPLEXITY>
623

> <PUBCHEM_CACTVS_HBOND_ACCEPTOR>
13

> <PUBCHEM_CACTVS_HBOND_DONOR>
7

> <PUBCHEM_CACTVS_ROTATABLE_BOND>
8

> <PUBCHEM_CACTVS_SUBSKEYS>
AAADceB4PAAAAAAAAAAAAAAAAAAAAAAAAAA0SIAAAAAAAAABAAAAGgAACAAADBSwmAMyDoAABgCIAihSgAACCAAkIAAIiAEGiMgdNjKENRqieSKlwBEPqYfK7BzOIAABAAAAQABAAAIAAACAAAAAAAAAAA==

> <PUBCHEM_IUPAC_OPENEYE_NAME>
4-[3,4-dihydroxy-6-(hydroxymethyl)-5-[3,4,5-trihydroxy-6-(hydroxymethyl)tetrahydropyran-2-yl]oxy-tetrahydropyran-2-yl]oxy-3-methoxy-benzaldehyde

> <PUBCHEM_IUPAC_CAS_NAME>
4-[[3,4-dihydroxy-6-(hydroxymethyl)-5-[[3,4,5-trihydroxy-6-(hydroxymethyl)-2-oxanyl]oxy]-2-oxanyl]oxy]-3-methoxybenzaldehyde

> <PUBCHEM_IUPAC_NAME_MARKUP>
4-[3,4-dihydroxy-6-(hydroxymethyl)-5-[3,4,5-trihydroxy-6-(hydroxymethyl)oxan-2-yl]oxyoxan-2-yl]oxy-3-methoxybenzaldehyde

> <PUBCHEM_IUPAC_NAME>
4-[3,4-dihydroxy-6-(hydroxymethyl)-5-[3,4,5-trihydroxy-6-(hydroxymethyl)oxan-2-yl]oxyoxan-2-yl]oxy-3-methoxybenzaldehyde

> <PUBCHEM_IUPAC_SYSTEMATIC_NAME>
4-[6-(hydroxymethyl)-5-[6-(hydroxymethyl)-3,4,5-tris(oxidanyl)oxan-2-yl]oxy-3,4-bis(oxidanyl)oxan-2-yl]oxy-3-methoxy-benzaldehyde

> <PUBCHEM_IUPAC_TRADITIONAL_NAME>
4-[3,4-dihydroxy-6-methylol-5-(3,4,5-trihydroxy-6-methylol-tetrahydropyran-2-yl)oxy-tetrahydropyran-2-yl]oxy-3-methoxy-benzaldehyde

> <PUBCHEM_IUPAC_INCHI>
InChI=1S/C20H28O13/c1-29-10-4-8(5-21)2-3-9(10)30-19-17(28)15(26)18(12(7-23)32-19)33-20-16(27)14(25)13(24)11(6-22)31-20/h2-5,11-20,22-28H,6-7H2,1H3

> <PUBCHEM_IUPAC_INCHIKEY>
NFRCFLJZVHOKRH-UHFFFAOYSA-N

> <PUBCHEM_XLOGP3>
-3.7

> <PUBCHEM_EXACT_MASS>
476.152991

> <PUBCHEM_MOLECULAR_FORMULA>
C20H28O13

> <PUBCHEM_MOLECULAR_WEIGHT>
476.4

> <PUBCHEM_OPENEYE_CAN_SMILES>
COC1=C(C=CC(=C1)C=O)OC2C(C(C(C(O2)CO)OC3C(C(C(C(O3)CO)O)O)O)O)O

> <PUBCHEM_OPENEYE_ISO_SMILES>
COC1=C(C=CC(=C1)C=O)OC2C(C(C(C(O2)CO)OC3C(C(C(C(O3)CO)O)O)O)O)O

> <PUBCHEM_CACTVS_TPSA>
205

> <PUBCHEM_MONOISOTOPIC_WEIGHT>
476.152991

> <PUBCHEM_TOTAL_CHARGE>
0

> <PUBCHEM_HEAVY_ATOM_COUNT>
33

> <PUBCHEM_ATOM_DEF_STEREO_COUNT>
0

> <PUBCHEM_ATOM_UDEF_STEREO_COUNT>
10

> <PUBCHEM_BOND_DEF_STEREO_COUNT>
0

> <PUBCHEM_BOND_UDEF_STEREO_COUNT>
0

> <PUBCHEM_ISOTOPIC_ATOM_COUNT>
0

> <PUBCHEM_COMPONENT_COUNT>
1

> <PUBCHEM_CACTVS_TAUTO_COUNT>
-1

> <PUBCHEM_COORDINATE_TYPE>
1
5
255

> <PUBCHEM_BONDANNOTATIONS>
14  1  3
17  1  3
16  24  3
22  25  3
26  27  8
26  28  8
27  29  8
28  30  8
29  31  8
30  31  8
15  4  3
18  5  3
19  6  3
20  7  3
23  8  3
21  9  3

$$$$
