6453932
  -OEChem-10022014502D

119125  0     1  0  0  0  0  0999 V2000
    8.5991   -0.9100    0.0000 O   0  0  0  0  0  0  0  0  0  0  0  0
   17.5122    2.2109    0.0000 O   0  0  0  0  0  0  0  0  0  0  0  0
   16.6636    0.7010    0.0000 O   0  0  0  0  0  0  0  0  0  0  0  0
    7.7331    0.5900    0.0000 O   0  0  0  0  0  0  0  0  0  0  0  0
    6.8671   -1.9100    0.0000 O   0  0  0  0  0  0  0  0  0  0  0  0
    5.1350   -0.9100    0.0000 O   0  0  0  0  0  0  0  0  0  0  0  0
    5.1350    1.0900    0.0000 O   0  0  0  0  0  0  0  0  0  0  0  0
    5.1350   -1.9100    0.0000 O   0  0  0  0  0  0  0  0  0  0  0  0
    6.8671   -3.9100    0.0000 O   0  0  0  0  0  0  0  0  0  0  0  0
    5.1350   -4.9100    0.0000 O   0  0  0  0  0  0  0  0  0  0  0  0
    3.4030   -3.9100    0.0000 O   0  0  0  0  0  0  0  0  0  0  0  0
    2.5369   -2.4100    0.0000 O   0  0  0  0  0  0  0  0  0  0  0  0
   13.1202    0.6598    0.0000 C   0  0  2  0  0  0  0  0  0  0  0  0
   12.2522    1.1565    0.0000 C   0  0  1  0  0  0  0  0  0  0  0  0
   11.3442    0.6461    0.0000 C   0  0  2  0  0  0  0  0  0  0  0  0
   13.9842    1.1631    0.0000 C   0  0  1  0  0  0  0  0  0  0  0  0
   11.3402   -0.3955    0.0000 C   0  0  3  0  0  0  0  0  0  0  0  0
   13.1402   -0.3816    0.0000 C   0  0  0  0  0  0  0  0  0  0  0  0
   10.4069   -0.9488    0.0000 C   0  0  0  0  0  0  0  0  0  0  0  0
   12.2442   -0.9128    0.0000 C   0  0  0  0  0  0  0  0  0  0  0  0
   13.9804    2.1631    0.0000 C   0  0  0  0  0  0  0  0  0  0  0  0
   12.2484    2.1564    0.0000 C   0  0  0  0  0  0  0  0  0  0  0  0
   10.4152    1.2066    0.0000 C   0  0  0  0  0  0  0  0  0  0  0  0
   14.8723    2.7012    0.0000 C   0  0  2  0  0  0  0  0  0  0  0  0
   14.8802    0.6319    0.0000 C   0  0  0  0  0  0  0  0  0  0  0  0
   15.7803    2.1909    0.0000 C   0  0  1  0  0  0  0  0  0  0  0  0
   13.7659   -0.1038    0.0000 C   0  0  0  0  0  0  0  0  0  0  0  0
    9.4651   -0.4100    0.0000 C   0  0  2  0  0  0  0  0  0  0  0  0
   15.7843    1.1493    0.0000 C   0  0  0  0  0  0  0  0  0  0  0  0
   11.3480    1.6461    0.0000 C   0  0  0  0  0  0  0  0  0  0  0  0
    9.4693    0.6750    0.0000 C   0  0  0  0  0  0  0  0  0  0  0  0
   13.1124    2.6598    0.0000 C   0  0  0  0  0  0  0  0  0  0  0  0
   14.3299    0.2248    0.0000 C   0  0  0  0  0  0  0  0  0  0  0  0
   14.8430    3.7858    0.0000 C   0  0  0  0  0  0  0  0  0  0  0  0
   16.7220    2.7298    0.0000 C   0  0  0  0  0  0  0  0  0  0  0  0
   15.7720    4.3463    0.0000 C   0  0  0  0  0  0  0  0  0  0  0  0
   10.9135   -1.8110    0.0000 C   0  0  0  0  0  0  0  0  0  0  0  0
    9.9136   -1.8187    0.0000 C   0  0  0  0  0  0  0  0  0  0  0  0
   16.7178    3.8147    0.0000 C   0  0  0  0  0  0  0  0  0  0  0  0
   16.6521    1.7009    0.0000 C   0  0  0  0  0  0  0  0  0  0  0  0
   16.2586    5.2200    0.0000 C   0  0  0  0  0  0  0  0  0  0  0  0
   15.2587    5.2046    0.0000 C   0  0  0  0  0  0  0  0  0  0  0  0
    7.7331   -0.4100    0.0000 C   0  0  2  0  0  0  0  0  0  0  0  0
    6.8671   -0.9100    0.0000 C   0  0  1  0  0  0  0  0  0  0  0  0
    6.0010   -0.4100    0.0000 C   0  0  2  0  0  0  0  0  0  0  0  0
    6.8671    1.0900    0.0000 C   0  0  0  0  0  0  0  0  0  0  0  0
    6.0010    0.5900    0.0000 C   0  0  2  0  0  0  0  0  0  0  0  0
    6.0010   -2.4100    0.0000 C   0  0  1  0  0  0  0  0  0  0  0  0
    6.0010   -3.4100    0.0000 C   0  0  1  0  0  0  0  0  0  0  0  0
    5.1350   -3.9100    0.0000 C   0  0  2  0  0  0  0  0  0  0  0  0
    4.2690   -2.4100    0.0000 C   0  0  1  0  0  0  0  0  0  0  0  0
    4.2690   -3.4100    0.0000 C   0  0  1  0  0  0  0  0  0  0  0  0
    3.4030   -1.9100    0.0000 C   0  0  0  0  0  0  0  0  0  0  0  0
   12.9867    1.5843    0.0000 H   0  0  0  0  0  0  0  0  0  0  0  0
   11.3449   -1.0155    0.0000 H   0  0  0  0  0  0  0  0  0  0  0  0
   13.3605   -0.9612    0.0000 H   0  0  0  0  0  0  0  0  0  0  0  0
   13.7489   -0.2638    0.0000 H   0  0  0  0  0  0  0  0  0  0  0  0
   11.8488   -1.3904    0.0000 H   0  0  0  0  0  0  0  0  0  0  0  0
   12.6470   -1.3842    0.0000 H   0  0  0  0  0  0  0  0  0  0  0  0
   12.0341    2.7382    0.0000 H   0  0  0  0  0  0  0  0  0  0  0  0
   11.6382    2.0464    0.0000 H   0  0  0  0  0  0  0  0  0  0  0  0
   10.8216    1.6748    0.0000 H   0  0  0  0  0  0  0  0  0  0  0  0
   10.0234    1.6872    0.0000 H   0  0  0  0  0  0  0  0  0  0  0  0
   15.6001    3.1403    0.0000 H   0  0  0  0  0  0  0  0  0  0  0  0
   14.4775    0.1606    0.0000 H   0  0  0  0  0  0  0  0  0  0  0  0
   15.2757    0.1544    0.0000 H   0  0  0  0  0  0  0  0  0  0  0  0
   13.2925   -0.5041    0.0000 H   0  0  0  0  0  0  0  0  0  0  0  0
   14.1662   -0.5772    0.0000 H   0  0  0  0  0  0  0  0  0  0  0  0
   14.2393    0.2966    0.0000 H   0  0  0  0  0  0  0  0  0  0  0  0
    9.4663   -1.0300    0.0000 H   0  0  0  0  0  0  0  0  0  0  0  0
   15.9956    0.5664    0.0000 H   0  0  0  0  0  0  0  0  0  0  0  0
   16.3948    1.2577    0.0000 H   0  0  0  0  0  0  0  0  0  0  0  0
   11.9680    1.6437    0.0000 H   0  0  0  0  0  0  0  0  0  0  0  0
   11.3504    2.2661    0.0000 H   0  0  0  0  0  0  0  0  0  0  0  0
   10.7280    1.6485    0.0000 H   0  0  0  0  0  0  0  0  0  0  0  0
    9.2625    1.2595    0.0000 H   0  0  0  0  0  0  0  0  0  0  0  0
    8.8581    0.5713    0.0000 H   0  0  0  0  0  0  0  0  0  0  0  0
   13.1101    3.2798    0.0000 H   0  0  0  0  0  0  0  0  0  0  0  0
   13.7481    0.0105    0.0000 H   0  0  0  0  0  0  0  0  0  0  0  0
   14.5442   -0.3570    0.0000 H   0  0  0  0  0  0  0  0  0  0  0  0
   14.9117    0.4391    0.0000 H   0  0  0  0  0  0  0  0  0  0  0  0
   14.6183    4.3637    0.0000 H   0  0  0  0  0  0  0  0  0  0  0  0
   14.2352    3.6633    0.0000 H   0  0  0  0  0  0  0  0  0  0  0  0
   16.9333    2.1469    0.0000 H   0  0  0  0  0  0  0  0  0  0  0  0
   17.3325    2.8382    0.0000 H   0  0  0  0  0  0  0  0  0  0  0  0
   10.3790   -2.1251    0.0000 H   0  0  0  0  0  0  0  0  0  0  0  0
   11.2276   -2.3455    0.0000 H   0  0  0  0  0  0  0  0  0  0  0  0
   11.4480   -1.4968    0.0000 H   0  0  0  0  0  0  0  0  0  0  0  0
    9.3742   -1.5128    0.0000 H   0  0  0  0  0  0  0  0  0  0  0  0
    9.6077   -2.3580    0.0000 H   0  0  0  0  0  0  0  0  0  0  0  0
   10.4529   -2.1245    0.0000 H   0  0  0  0  0  0  0  0  0  0  0  0
   17.3291    3.7110    0.0000 H   0  0  0  0  0  0  0  0  0  0  0  0
   16.9246    4.3992    0.0000 H   0  0  0  0  0  0  0  0  0  0  0  0
   16.8002    4.9183    0.0000 H   0  0  0  0  0  0  0  0  0  0  0  0
   16.5603    5.7616    0.0000 H   0  0  0  0  0  0  0  0  0  0  0  0
   15.7169    5.5216    0.0000 H   0  0  0  0  0  0  0  0  0  0  0  0
   15.7908    5.5228    0.0000 H   0  0  0  0  0  0  0  0  0  0  0  0
   14.9405    5.7366    0.0000 H   0  0  0  0  0  0  0  0  0  0  0  0
   14.7266    4.8863    0.0000 H   0  0  0  0  0  0  0  0  0  0  0  0
    7.7331   -1.0300    0.0000 H   0  0  0  0  0  0  0  0  0  0  0  0
   18.0527    1.9071    0.0000 H   0  0  0  0  0  0  0  0  0  0  0  0
    6.3301   -1.2200    0.0000 H   0  0  0  0  0  0  0  0  0  0  0  0
    5.4641   -0.1000    0.0000 H   0  0  0  0  0  0  0  0  0  0  0  0
    7.2656    1.5650    0.0000 H   0  0  0  0  0  0  0  0  0  0  0  0
    6.4685    1.5650    0.0000 H   0  0  0  0  0  0  0  0  0  0  0  0
    6.0010    1.2100    0.0000 H   0  0  0  0  0  0  0  0  0  0  0  0
    6.0010   -1.7900    0.0000 H   0  0  0  0  0  0  0  0  0  0  0  0
    4.5981   -0.6000    0.0000 H   0  0  0  0  0  0  0  0  0  0  0  0
    5.1350    1.7100    0.0000 H   0  0  0  0  0  0  0  0  0  0  0  0
    6.0010   -4.0300    0.0000 H   0  0  0  0  0  0  0  0  0  0  0  0
    4.5981   -4.2200    0.0000 H   0  0  0  0  0  0  0  0  0  0  0  0
    4.2690   -1.7900    0.0000 H   0  0  0  0  0  0  0  0  0  0  0  0
    4.2690   -4.0300    0.0000 H   0  0  0  0  0  0  0  0  0  0  0  0
    7.4040   -3.6000    0.0000 H   0  0  0  0  0  0  0  0  0  0  0  0
    3.8015   -1.4350    0.0000 H   0  0  0  0  0  0  0  0  0  0  0  0
    3.0044   -1.4350    0.0000 H   0  0  0  0  0  0  0  0  0  0  0  0
    5.6720   -5.2200    0.0000 H   0  0  0  0  0  0  0  0  0  0  0  0
    3.4030   -4.5300    0.0000 H   0  0  0  0  0  0  0  0  0  0  0  0
    2.0000   -2.1000    0.0000 H   0  0  0  0  0  0  0  0  0  0  0  0
 28  1  1  1  0  0  0
 43  1  1  1  0  0  0
  2 40  1  0  0  0  0
  2101  1  0  0  0  0
  3 40  2  0  0  0  0
  4 43  1  0  0  0  0
  4 46  1  0  0  0  0
 44  5  1  6  0  0  0
 48  5  1  6  0  0  0
 45  6  1  1  0  0  0
  6108  1  0  0  0  0
 47  7  1  1  0  0  0
  7109  1  0  0  0  0
  8 48  1  0  0  0  0
  8 51  1  0  0  0  0
 49  9  1  6  0  0  0
  9114  1  0  0  0  0
 50 10  1  1  0  0  0
 10117  1  0  0  0  0
 52 11  1  6  0  0  0
 11118  1  0  0  0  0
 12 53  1  0  0  0  0
 12119  1  0  0  0  0
 13 14  1  0  0  0  0
 13 16  1  0  0  0  0
 13 18  1  0  0  0  0
 13 27  1  1  0  0  0
 14 15  1  0  0  0  0
 14 22  1  0  0  0  0
 14 54  1  6  0  0  0
 15 17  1  0  0  0  0
 15 23  1  0  0  0  0
 15 30  1  1  0  0  0
 16 21  1  0  0  0  0
 16 25  1  0  0  0  0
 16 33  1  6  0  0  0
 17 19  1  0  0  0  0
 17 20  1  0  0  0  0
 17 55  1  0  0  0  0
 18 20  1  0  0  0  0
 18 56  1  0  0  0  0
 18 57  1  0  0  0  0
 19 28  1  0  0  0  0
 19 37  1  0  0  0  0
 19 38  1  0  0  0  0
 20 58  1  0  0  0  0
 20 59  1  0  0  0  0
 21 24  1  0  0  0  0
 21 32  2  0  0  0  0
 22 32  1  0  0  0  0
 22 60  1  0  0  0  0
 22 61  1  0  0  0  0
 23 31  1  0  0  0  0
 23 62  1  0  0  0  0
 23 63  1  0  0  0  0
 24 26  1  0  0  0  0
 24 34  1  0  0  0  0
 24 64  1  6  0  0  0
 25 29  1  0  0  0  0
 25 65  1  0  0  0  0
 25 66  1  0  0  0  0
 26 29  1  0  0  0  0
 26 35  1  0  0  0  0
 26 40  1  1  0  0  0
 27 67  1  0  0  0  0
 27 68  1  0  0  0  0
 27 69  1  0  0  0  0
 28 31  1  0  0  0  0
 28 70  1  0  0  0  0
 29 71  1  0  0  0  0
 29 72  1  0  0  0  0
 30 73  1  0  0  0  0
 30 74  1  0  0  0  0
 30 75  1  0  0  0  0
 31 76  1  0  0  0  0
 31 77  1  0  0  0  0
 32 78  1  0  0  0  0
 33 79  1  0  0  0  0
 33 80  1  0  0  0  0
 33 81  1  0  0  0  0
 34 36  1  0  0  0  0
 34 82  1  0  0  0  0
 34 83  1  0  0  0  0
 35 39  1  0  0  0  0
 35 84  1  0  0  0  0
 35 85  1  0  0  0  0
 36 39  1  0  0  0  0
 36 41  1  0  0  0  0
 36 42  1  0  0  0  0
 37 86  1  0  0  0  0
 37 87  1  0  0  0  0
 37 88  1  0  0  0  0
 38 89  1  0  0  0  0
 38 90  1  0  0  0  0
 38 91  1  0  0  0  0
 39 92  1  0  0  0  0
 39 93  1  0  0  0  0
 41 94  1  0  0  0  0
 41 95  1  0  0  0  0
 41 96  1  0  0  0  0
 42 97  1  0  0  0  0
 42 98  1  0  0  0  0
 42 99  1  0  0  0  0
 43 44  1  0  0  0  0
 43100  1  0  0  0  0
 44 45  1  0  0  0  0
 44102  1  0  0  0  0
 45 47  1  0  0  0  0
 45103  1  0  0  0  0
 46 47  1  0  0  0  0
 46104  1  0  0  0  0
 46105  1  0  0  0  0
 47106  1  0  0  0  0
 48 49  1  0  0  0  0
 48107  1  0  0  0  0
 49 50  1  0  0  0  0
 49110  1  0  0  0  0
 50 52  1  0  0  0  0
 50111  1  0  0  0  0
 51 52  1  0  0  0  0
 51 53  1  1  0  0  0
 51112  1  0  0  0  0
 52113  1  0  0  0  0
 53115  1  0  0  0  0
 53116  1  0  0  0  0
M  END
> <PUBCHEM_COMPOUND_CID>
6453932

> <PUBCHEM_COMPOUND_CANONICALIZED>
1

> <PUBCHEM_CACTVS_COMPLEXITY>
1430

> <PUBCHEM_CACTVS_HBOND_ACCEPTOR>
12

> <PUBCHEM_CACTVS_HBOND_DONOR>
7

> <PUBCHEM_CACTVS_ROTATABLE_BOND>
6

> <PUBCHEM_CACTVS_SUBSKEYS>
AAADcfB8PAAAAAAAAAAAAAAAAAAAAAAAAAA0aMGCAAAAAADAAAAAGgAACAAADxSwgAMCCAAABgCIAiDSCAAAAAAgAAAACAEAAAgREBIAAQAiQAAFgAAPAAPI6PyPgAAAAAAAAADAAAYAADAAAAAAAAAAAA==

> <PUBCHEM_IUPAC_OPENEYE_NAME>
(4aS,6aR,6aS,6bR,10S,12aR,14bR)-10-[(2S,3R,4S,5S)-4,5-dihydroxy-3-[(2R,3R,4S,5S,6R)-3,4,5-trihydroxy-6-(hydroxymethyl)tetrahydropyran-2-yl]oxy-tetrahydropyran-2-yl]oxy-2,2,6a,6b,9,9,12a-heptamethyl-1,3,4,5,6,6a,7,8,8a,10,11,12,13,14b-tetradecahydropicene-4a-carboxylic acid

> <PUBCHEM_IUPAC_CAS_NAME>
(4aS,6aR,6aS,6bR,10S,12aR,14bR)-10-[[(2S,3R,4S,5S)-4,5-dihydroxy-3-[[(2R,3R,4S,5S,6R)-3,4,5-trihydroxy-6-(hydroxymethyl)-2-oxanyl]oxy]-2-oxanyl]oxy]-2,2,6a,6b,9,9,12a-heptamethyl-1,3,4,5,6,6a,7,8,8a,10,11,12,13,14b-tetradecahydropicene-4a-carboxylic acid

> <PUBCHEM_IUPAC_NAME_MARKUP>
(4<I>a</I><I>S</I>,6<I>a</I><I>R</I>,6<I>a</I><I>S</I>,6<I>b</I><I>R</I>,10<I>S</I>,12<I>a</I><I>R</I>,14<I>b</I><I>R</I>)-10-[(2<I>S</I>,3<I>R</I>,4<I>S</I>,5<I>S</I>)-4,5-dihydroxy-3-[(2<I>R</I>,3<I>R</I>,4<I>S</I>,5<I>S</I>,6<I>R</I>)-3,4,5-trihydroxy-6-(hydroxymethyl)oxan-2-yl]oxyoxan-2-yl]oxy-2,2,6<I>a</I>,6<I>b</I>,9,9,12<I>a</I>-heptamethyl-1,3,4,5,6,6<I>a</I>,7,8,8<I>a</I>,10,11,12,13,14<I>b</I>-tetradecahydropicene-4<I>a</I>-carboxylic acid

> <PUBCHEM_IUPAC_NAME>
(4aS,6aR,6aS,6bR,10S,12aR,14bR)-10-[(2S,3R,4S,5S)-4,5-dihydroxy-3-[(2R,3R,4S,5S,6R)-3,4,5-trihydroxy-6-(hydroxymethyl)oxan-2-yl]oxyoxan-2-yl]oxy-2,2,6a,6b,9,9,12a-heptamethyl-1,3,4,5,6,6a,7,8,8a,10,11,12,13,14b-tetradecahydropicene-4a-carboxylic acid

> <PUBCHEM_IUPAC_SYSTEMATIC_NAME>
(4aS,6aR,6aS,6bR,10S,12aR,14bR)-10-[(2S,3R,4S,5S)-3-[(2R,3R,4S,5S,6R)-6-(hydroxymethyl)-3,4,5-tris(oxidanyl)oxan-2-yl]oxy-4,5-bis(oxidanyl)oxan-2-yl]oxy-2,2,6a,6b,9,9,12a-heptamethyl-1,3,4,5,6,6a,7,8,8a,10,11,12,13,14b-tetradecahydropicene-4a-carboxylic acid

> <PUBCHEM_IUPAC_TRADITIONAL_NAME>
(4aS,6aR,6aS,6bR,10S,12aR,14bR)-10-[(2S,3R,4S,5S)-4,5-dihydroxy-3-[(2R,3R,4S,5S,6R)-3,4,5-trihydroxy-6-methylol-tetrahydropyran-2-yl]oxy-tetrahydropyran-2-yl]oxy-2,2,6a,6b,9,9,12a-heptamethyl-1,3,4,5,6,6a,7,8,8a,10,11,12,13,14b-tetradecahydropicene-4a-carboxylic acid

> <PUBCHEM_IUPAC_INCHI>
InChI=1S/C41H66O12/c1-36(2)14-16-41(35(48)49)17-15-39(6)21(22(41)18-36)8-9-26-38(5)12-11-27(37(3,4)25(38)10-13-40(26,39)7)52-34-32(28(44)23(43)20-50-34)53-33-31(47)30(46)29(45)24(19-42)51-33/h8,22-34,42-47H,9-20H2,1-7H3,(H,48,49)/t22-,23+,24-,25?,26-,27+,28+,29-,30+,31-,32-,33-,34+,38+,39-,40-,41+/m1/s1

> <PUBCHEM_IUPAC_INCHIKEY>
GXWUEMSASMVWKO-GNLHUFSQSA-N

> <PUBCHEM_XLOGP3_AA>
4.4

> <PUBCHEM_EXACT_MASS>
750.455428

> <PUBCHEM_MOLECULAR_FORMULA>
C41H66O12

> <PUBCHEM_MOLECULAR_WEIGHT>
751

> <PUBCHEM_OPENEYE_CAN_SMILES>
CC1(CCC2(CCC3(C(=CCC4C3(CCC5C4(CCC(C5(C)C)OC6C(C(C(CO6)O)O)OC7C(C(C(C(O7)CO)O)O)O)C)C)C2C1)C)C(=O)O)C

> <PUBCHEM_OPENEYE_ISO_SMILES>
C[C@]12CC[C@@H](C(C1CC[C@@]3([C@@H]2CC=C4[C@]3(CC[C@@]5([C@@H]4CC(CC5)(C)C)C(=O)O)C)C)(C)C)O[C@H]6[C@@H]([C@H]([C@H](CO6)O)O)O[C@@H]7[C@@H]([C@H]([C@@H]([C@H](O7)CO)O)O)O

> <PUBCHEM_CACTVS_TPSA>
196

> <PUBCHEM_MONOISOTOPIC_WEIGHT>
750.455428

> <PUBCHEM_TOTAL_CHARGE>
0

> <PUBCHEM_HEAVY_ATOM_COUNT>
53

> <PUBCHEM_ATOM_DEF_STEREO_COUNT>
16

> <PUBCHEM_ATOM_UDEF_STEREO_COUNT>
1

> <PUBCHEM_BOND_DEF_STEREO_COUNT>
0

> <PUBCHEM_BOND_UDEF_STEREO_COUNT>
0

> <PUBCHEM_ISOTOPIC_ATOM_COUNT>
0

> <PUBCHEM_COMPONENT_COUNT>
1

> <PUBCHEM_CACTVS_TAUTO_COUNT>
-1

> <PUBCHEM_COORDINATE_TYPE>
1
5
255

> <PUBCHEM_BONDANNOTATIONS>
28  1  5
43  1  5
50  10  5
52  11  6
13  27  5
14  54  6
15  30  5
16  33  6
17  20  3
24  64  6
26  40  5
44  5  6
48  5  6
51  53  5
45  6  5
47  7  5
49  9  6

$$$$
