3034842
  -OEChem-11232016162D

138146  0     1  0  0  0  0  0999 V2000
   13.9550    8.4102    0.0000 O   0  0  0  0  0  0  0  0  0  0  0  0
   10.3312    4.2798    0.0000 O   0  0  0  0  0  0  0  0  0  0  0  0
   19.0100    8.0235    0.0000 O   0  0  0  0  0  0  0  0  0  0  0  0
    9.4651    2.7798    0.0000 O   0  0  0  0  0  0  0  0  0  0  0  0
   19.4676    6.3012    0.0000 O   0  0  0  0  0  0  0  0  0  0  0  0
   12.0632    1.2798    0.0000 O   0  0  0  0  0  0  0  0  0  0  0  0
   10.3312    0.2798    0.0000 O   0  0  0  0  0  0  0  0  0  0  0  0
    8.5991    0.2798    0.0000 O   0  0  0  0  0  0  0  0  0  0  0  0
    6.8671   -1.7202    0.0000 O   0  0  0  0  0  0  0  0  0  0  0  0
    8.5991   -2.7202    0.0000 O   0  0  0  0  0  0  0  0  0  0  0  0
    6.0010   -3.2202    0.0000 O   0  0  0  0  0  0  0  0  0  0  0  0
    6.8671   -5.7202    0.0000 O   0  0  0  0  0  0  0  0  0  0  0  0
    8.5991   -4.7202    0.0000 O   0  0  0  0  0  0  0  0  0  0  0  0
    5.1350   -5.7202    0.0000 O   0  0  0  0  0  0  0  0  0  0  0  0
    6.8671   -7.7202    0.0000 O   0  0  0  0  0  0  0  0  0  0  0  0
    5.1350   -8.7202    0.0000 O   0  0  0  0  0  0  0  0  0  0  0  0
    3.4030   -7.7202    0.0000 O   0  0  0  0  0  0  0  0  0  0  0  0
    2.5369   -6.2202    0.0000 O   0  0  0  0  0  0  0  0  0  0  0  0
    3.4030   -4.7202    0.0000 O   0  0  0  0  0  0  0  0  0  0  0  0
   14.8191    7.9069    0.0000 C   0  0  1  0  0  0  0  0  0  0  0  0
   13.9511    7.4102    0.0000 C   0  0  1  0  0  0  0  0  0  0  0  0
   13.9473    6.4102    0.0000 C   0  0  1  0  0  0  0  0  0  0  0  0
   15.6832    7.4036    0.0000 C   0  0  2  0  0  0  0  0  0  0  0  0
   13.0513    5.8790    0.0000 C   0  0  2  0  0  0  0  0  0  0  0  0
   12.1472    6.3964    0.0000 C   0  0  2  0  0  0  0  0  0  0  0  0
   14.8114    5.9069    0.0000 C   0  0  0  0  0  0  0  0  0  0  0  0
   15.6793    6.4036    0.0000 C   0  0  0  0  0  0  0  0  0  0  0  0
   16.4228    8.0678    0.0000 C   0  0  2  0  0  0  0  0  0  0  0  0
   13.0593    7.9483    0.0000 C   0  0  0  0  0  0  0  0  0  0  0  0
   15.0320    8.8779    0.0000 C   0  0  0  0  0  0  0  0  0  0  0  0
   12.1512    7.4380    0.0000 C   0  0  0  0  0  0  0  0  0  0  0  0
   16.0212    8.9771    0.0000 C   0  0  0  0  0  0  0  0  0  0  0  0
   13.0722    4.7942    0.0000 C   0  0  0  0  0  0  0  0  0  0  0  0
   11.2014    5.8648    0.0000 C   0  0  0  0  0  0  0  0  0  0  0  0
   16.5473    6.9002    0.0000 C   0  0  0  0  0  0  0  0  0  0  0  0
   13.9192    5.3824    0.0000 C   0  0  0  0  0  0  0  0  0  0  0  0
   12.1389    4.2409    0.0000 C   0  0  0  0  0  0  0  0  0  0  0  0
   11.1972    4.7798    0.0000 C   0  0  2  0  0  0  0  0  0  0  0  0
   17.4005    7.8578    0.0000 C   0  0  0  0  0  0  0  0  0  0  0  0
   18.1450    8.5254    0.0000 C   0  0  0  0  0  0  0  0  0  0  0  0
   17.8053    6.9434    0.0000 C   0  0  0  0  0  0  0  0  0  0  0  0
   10.3312    3.2798    0.0000 C   0  0  2  0  0  0  0  0  0  0  0  0
   18.8000    7.0458    0.0000 C   0  0  0  0  0  0  0  0  0  0  0  0
   11.1972    2.7798    0.0000 C   0  0  0  0  0  0  0  0  0  0  0  0
   11.1972    1.7798    0.0000 C   0  0  1  0  0  0  0  0  0  0  0  0
    9.4651    1.7798    0.0000 C   0  0  1  0  0  0  0  0  0  0  0  0
   10.3312    1.2798    0.0000 C   0  0  3  0  0  0  0  0  0  0  0  0
    8.5991    1.2798    0.0000 C   0  0  0  0  0  0  0  0  0  0  0  0
    9.4651   -0.2202    0.0000 C   0  0  2  0  0  0  0  0  0  0  0  0
    9.4651   -1.2202    0.0000 C   0  0  0  0  0  0  0  0  0  0  0  0
    8.5991   -1.7202    0.0000 C   0  0  1  0  0  0  0  0  0  0  0  0
    7.7331   -0.2202    0.0000 C   0  0  1  0  0  0  0  0  0  0  0  0
    7.7331   -1.2202    0.0000 C   0  0  1  0  0  0  0  0  0  0  0  0
    6.8671    0.2798    0.0000 C   0  0  0  0  0  0  0  0  0  0  0  0
    6.8671   -2.7202    0.0000 C   0  0  2  0  0  0  0  0  0  0  0  0
    7.7331   -3.2202    0.0000 C   0  0  0  0  0  0  0  0  0  0  0  0
    7.7331   -4.2202    0.0000 C   0  0  1  0  0  0  0  0  0  0  0  0
    6.8671   -4.7202    0.0000 C   0  0  1  0  0  0  0  0  0  0  0  0
    6.0010   -4.2202    0.0000 C   0  0  1  0  0  0  0  0  0  0  0  0
    5.1350   -4.7202    0.0000 C   0  0  0  0  0  0  0  0  0  0  0  0
    6.0010   -6.2202    0.0000 C   0  0  2  0  0  0  0  0  0  0  0  0
    6.0010   -7.2202    0.0000 C   0  0  1  0  0  0  0  0  0  0  0  0
    5.1350   -7.7202    0.0000 C   0  0  2  0  0  0  0  0  0  0  0  0
    4.2690   -7.2202    0.0000 C   0  0  1  0  0  0  0  0  0  0  0  0
    4.2690   -6.2202    0.0000 C   0  0  1  0  0  0  0  0  0  0  0  0
    3.4030   -5.7202    0.0000 C   0  0  0  0  0  0  0  0  0  0  0  0
   14.6856    6.9824    0.0000 H   0  0  0  0  0  0  0  0  0  0  0  0
   14.6850    6.8324    0.0000 H   0  0  0  0  0  0  0  0  0  0  0  0
   11.4144    6.8270    0.0000 H   0  0  0  0  0  0  0  0  0  0  0  0
   14.4110    5.4335    0.0000 H   0  0  0  0  0  0  0  0  0  0  0  0
   15.2081    5.4304    0.0000 H   0  0  0  0  0  0  0  0  0  0  0  0
   15.8891    5.8201    0.0000 H   0  0  0  0  0  0  0  0  0  0  0  0
   16.2903    6.5089    0.0000 H   0  0  0  0  0  0  0  0  0  0  0  0
   16.8142    8.5486    0.0000 H   0  0  0  0  0  0  0  0  0  0  0  0
   13.4657    8.4166    0.0000 H   0  0  0  0  0  0  0  0  0  0  0  0
   12.6675    8.4289    0.0000 H   0  0  0  0  0  0  0  0  0  0  0  0
   15.0353    9.4979    0.0000 H   0  0  0  0  0  0  0  0  0  0  0  0
   14.4158    8.9463    0.0000 H   0  0  0  0  0  0  0  0  0  0  0  0
   11.9444    8.0225    0.0000 H   0  0  0  0  0  0  0  0  0  0  0  0
   11.5400    7.3342    0.0000 H   0  0  0  0  0  0  0  0  0  0  0  0
   16.6115    9.1666    0.0000 H   0  0  0  0  0  0  0  0  0  0  0  0
   15.8948    9.5841    0.0000 H   0  0  0  0  0  0  0  0  0  0  0  0
   13.2925    4.2147    0.0000 H   0  0  0  0  0  0  0  0  0  0  0  0
   13.6809    4.9121    0.0000 H   0  0  0  0  0  0  0  0  0  0  0  0
   10.9946    6.4493    0.0000 H   0  0  0  0  0  0  0  0  0  0  0  0
   10.5901    5.7610    0.0000 H   0  0  0  0  0  0  0  0  0  0  0  0
   16.2352    6.3645    0.0000 H   0  0  0  0  0  0  0  0  0  0  0  0
   17.0830    6.5882    0.0000 H   0  0  0  0  0  0  0  0  0  0  0  0
   16.8593    7.4360    0.0000 H   0  0  0  0  0  0  0  0  0  0  0  0
   13.6113    4.8442    0.0000 H   0  0  0  0  0  0  0  0  0  0  0  0
   14.4574    5.0744    0.0000 H   0  0  0  0  0  0  0  0  0  0  0  0
   14.2272    5.9205    0.0000 H   0  0  0  0  0  0  0  0  0  0  0  0
   11.7434    3.7634    0.0000 H   0  0  0  0  0  0  0  0  0  0  0  0
   12.5417    3.7696    0.0000 H   0  0  0  0  0  0  0  0  0  0  0  0
   10.6609    5.0908    0.0000 H   0  0  0  0  0  0  0  0  0  0  0  0
   13.9574    9.0302    0.0000 H   0  0  0  0  0  0  0  0  0  0  0  0
   18.5105    9.0262    0.0000 H   0  0  0  0  0  0  0  0  0  0  0  0
   17.6852    8.9412    0.0000 H   0  0  0  0  0  0  0  0  0  0  0  0
   17.4941    6.4071    0.0000 H   0  0  0  0  0  0  0  0  0  0  0  0
   10.8681    3.5898    0.0000 H   0  0  0  0  0  0  0  0  0  0  0  0
   11.8078    2.6721    0.0000 H   0  0  0  0  0  0  0  0  0  0  0  0
   11.4092    3.3624    0.0000 H   0  0  0  0  0  0  0  0  0  0  0  0
   11.7341    2.0898    0.0000 H   0  0  0  0  0  0  0  0  0  0  0  0
    8.9282    2.0898    0.0000 H   0  0  0  0  0  0  0  0  0  0  0  0
   10.8681    0.9698    0.0000 H   0  0  0  0  0  0  0  0  0  0  0  0
    8.2891    1.8167    0.0000 H   0  0  0  0  0  0  0  0  0  0  0  0
    8.0622    0.9698    0.0000 H   0  0  0  0  0  0  0  0  0  0  0  0
    8.9091    0.7428    0.0000 H   0  0  0  0  0  0  0  0  0  0  0  0
   12.6002    1.5898    0.0000 H   0  0  0  0  0  0  0  0  0  0  0  0
   10.0021   -0.5302    0.0000 H   0  0  0  0  0  0  0  0  0  0  0  0
    9.6772   -1.8028    0.0000 H   0  0  0  0  0  0  0  0  0  0  0  0
   10.0757   -1.1126    0.0000 H   0  0  0  0  0  0  0  0  0  0  0  0
    8.0622   -2.0302    0.0000 H   0  0  0  0  0  0  0  0  0  0  0  0
    7.7331    0.3998    0.0000 H   0  0  0  0  0  0  0  0  0  0  0  0
    7.1962   -0.9102    0.0000 H   0  0  0  0  0  0  0  0  0  0  0  0
    7.1771    0.8167    0.0000 H   0  0  0  0  0  0  0  0  0  0  0  0
    6.3301    0.5898    0.0000 H   0  0  0  0  0  0  0  0  0  0  0  0
    6.5571   -0.2572    0.0000 H   0  0  0  0  0  0  0  0  0  0  0  0
    9.1360   -3.0302    0.0000 H   0  0  0  0  0  0  0  0  0  0  0  0
    7.4040   -2.4102    0.0000 H   0  0  0  0  0  0  0  0  0  0  0  0
    8.3437   -3.3279    0.0000 H   0  0  0  0  0  0  0  0  0  0  0  0
    7.9451   -2.6376    0.0000 H   0  0  0  0  0  0  0  0  0  0  0  0
    8.2700   -3.9102    0.0000 H   0  0  0  0  0  0  0  0  0  0  0  0
    7.4040   -5.0302    0.0000 H   0  0  0  0  0  0  0  0  0  0  0  0
    5.4641   -3.9102    0.0000 H   0  0  0  0  0  0  0  0  0  0  0  0
    4.8250   -4.1833    0.0000 H   0  0  0  0  0  0  0  0  0  0  0  0
    4.5981   -5.0302    0.0000 H   0  0  0  0  0  0  0  0  0  0  0  0
    5.4450   -5.2572    0.0000 H   0  0  0  0  0  0  0  0  0  0  0  0
    6.0010   -5.6002    0.0000 H   0  0  0  0  0  0  0  0  0  0  0  0
    6.0010   -7.8402    0.0000 H   0  0  0  0  0  0  0  0  0  0  0  0
    9.1360   -4.4102    0.0000 H   0  0  0  0  0  0  0  0  0  0  0  0
    4.5981   -8.0302    0.0000 H   0  0  0  0  0  0  0  0  0  0  0  0
    3.7320   -6.9102    0.0000 H   0  0  0  0  0  0  0  0  0  0  0  0
    4.2690   -5.6002    0.0000 H   0  0  0  0  0  0  0  0  0  0  0  0
    7.4040   -7.4102    0.0000 H   0  0  0  0  0  0  0  0  0  0  0  0
    5.6720   -9.0302    0.0000 H   0  0  0  0  0  0  0  0  0  0  0  0
    3.4030   -8.3402    0.0000 H   0  0  0  0  0  0  0  0  0  0  0  0
    2.0000   -5.9102    0.0000 H   0  0  0  0  0  0  0  0  0  0  0  0
 20  1  1  6  0  0  0
  1 96  1  0  0  0  0
 38  2  1  6  0  0  0
 42  2  1  1  0  0  0
  3 40  1  0  0  0  0
  3 43  1  0  0  0  0
  4 42  1  0  0  0  0
  4 46  1  0  0  0  0
  5 43  2  0  0  0  0
 45  6  1  6  0  0  0
  6109  1  0  0  0  0
  7 47  1  0  0  0  0
 49  7  1  1  0  0  0
  8 49  1  0  0  0  0
  8 52  1  0  0  0  0
 53  9  1  6  0  0  0
 55  9  1  1  0  0  0
 51 10  1  6  0  0  0
 10119  1  0  0  0  0
 11 55  1  0  0  0  0
 11 59  1  0  0  0  0
 58 12  1  6  0  0  0
 61 12  1  1  0  0  0
 57 13  1  6  0  0  0
 13131  1  0  0  0  0
 14 61  1  0  0  0  0
 14 65  1  0  0  0  0
 62 15  1  6  0  0  0
 15135  1  0  0  0  0
 63 16  1  1  0  0  0
 16136  1  0  0  0  0
 64 17  1  6  0  0  0
 17137  1  0  0  0  0
 18 66  1  0  0  0  0
 18138  1  0  0  0  0
 19 66  2  0  0  0  0
 20 21  1  0  0  0  0
 20 23  1  0  0  0  0
 20 30  1  0  0  0  0
 21 22  1  0  0  0  0
 21 29  1  0  0  0  0
 21 67  1  6  0  0  0
 22 24  1  0  0  0  0
 22 26  1  0  0  0  0
 22 68  1  1  0  0  0
 23 27  1  0  0  0  0
 23 28  1  0  0  0  0
 23 35  1  6  0  0  0
 24 25  1  0  0  0  0
 24 33  1  0  0  0  0
 24 36  1  6  0  0  0
 25 31  1  0  0  0  0
 25 34  1  0  0  0  0
 25 69  1  6  0  0  0
 26 27  1  0  0  0  0
 26 70  1  0  0  0  0
 26 71  1  0  0  0  0
 27 72  1  0  0  0  0
 27 73  1  0  0  0  0
 28 32  1  0  0  0  0
 28 39  1  6  0  0  0
 28 74  1  0  0  0  0
 29 31  1  0  0  0  0
 29 75  1  0  0  0  0
 29 76  1  0  0  0  0
 30 32  1  0  0  0  0
 30 77  1  0  0  0  0
 30 78  1  0  0  0  0
 31 79  1  0  0  0  0
 31 80  1  0  0  0  0
 32 81  1  0  0  0  0
 32 82  1  0  0  0  0
 33 37  1  0  0  0  0
 33 83  1  0  0  0  0
 33 84  1  0  0  0  0
 34 38  1  0  0  0  0
 34 85  1  0  0  0  0
 34 86  1  0  0  0  0
 35 87  1  0  0  0  0
 35 88  1  0  0  0  0
 35 89  1  0  0  0  0
 36 90  1  0  0  0  0
 36 91  1  0  0  0  0
 36 92  1  0  0  0  0
 37 38  1  0  0  0  0
 37 93  1  0  0  0  0
 37 94  1  0  0  0  0
 38 95  1  0  0  0  0
 39 40  1  0  0  0  0
 39 41  2  0  0  0  0
 40 97  1  0  0  0  0
 40 98  1  0  0  0  0
 41 43  1  0  0  0  0
 41 99  1  0  0  0  0
 42 44  1  0  0  0  0
 42100  1  0  0  0  0
 44 45  1  0  0  0  0
 44101  1  0  0  0  0
 44102  1  0  0  0  0
 45 47  1  0  0  0  0
 45103  1  0  0  0  0
 46 47  1  0  0  0  0
 46 48  1  1  0  0  0
 46104  1  0  0  0  0
 47105  1  0  0  0  0
 48106  1  0  0  0  0
 48107  1  0  0  0  0
 48108  1  0  0  0  0
 49 50  1  0  0  0  0
 49110  1  0  0  0  0
 50 51  1  0  0  0  0
 50111  1  0  0  0  0
 50112  1  0  0  0  0
 51 53  1  0  0  0  0
 51113  1  0  0  0  0
 52 53  1  0  0  0  0
 52 54  1  1  0  0  0
 52114  1  0  0  0  0
 53115  1  0  0  0  0
 54116  1  0  0  0  0
 54117  1  0  0  0  0
 54118  1  0  0  0  0
 55 56  1  0  0  0  0
 55120  1  0  0  0  0
 56 57  1  0  0  0  0
 56121  1  0  0  0  0
 56122  1  0  0  0  0
 57 58  1  0  0  0  0
 57123  1  0  0  0  0
 58 59  1  0  0  0  0
 58124  1  0  0  0  0
 59 60  1  1  0  0  0
 59125  1  0  0  0  0
 60126  1  0  0  0  0
 60127  1  0  0  0  0
 60128  1  0  0  0  0
 61 62  1  0  0  0  0
 61129  1  0  0  0  0
 62 63  1  0  0  0  0
 62130  1  0  0  0  0
 63 64  1  0  0  0  0
 63132  1  0  0  0  0
 64 65  1  0  0  0  0
 64133  1  0  0  0  0
 65 66  1  1  0  0  0
 65134  1  0  0  0  0
M  END
> <PUBCHEM_COMPOUND_CID>
3034842

> <PUBCHEM_COMPOUND_CANONICALIZED>
1

> <PUBCHEM_CACTVS_COMPLEXITY>
1800

> <PUBCHEM_CACTVS_HBOND_ACCEPTOR>
19

> <PUBCHEM_CACTVS_HBOND_DONOR>
8

> <PUBCHEM_CACTVS_ROTATABLE_BOND>
10

> <PUBCHEM_CACTVS_SUBSKEYS>
AAADcfB8PgAAAAAAAAAAAAAAAAAAAYIAAAA0aNEiAAAAAGDAAAAAGgAACAAAD1SwgAMCCAAABgCIAiDSCAIAAAAgAAAACAFAAEgRFBYAIQQiUAAFoAAPIQPK7PxPgAAAAAAAAADAAAYAADAAAYAADAAAAA==

> <PUBCHEM_IUPAC_OPENEYE_NAME>
(2S,3S,4S,5R,6R)-3,4,5-trihydroxy-6-[(2R,3S,4S,6S)-4-hydroxy-6-[(2R,3S,4S,6S)-4-hydroxy-6-[(2R,4S,6R)-4-hydroxy-6-[[(3S,5R,8R,9S,10S,13R,14S,17R)-14-hydroxy-10,13-dimethyl-17-(5-oxo-2H-furan-3-yl)-1,2,3,4,5,6,7,8,9,11,12,15,16,17-tetradecahydrocyclopenta[a]phenanthren-3-yl]oxy]-2-methyl-tetrahydropyran-3-yl]oxy-2-methyl-tetrahydropyran-3-yl]oxy-2-methyl-tetrahydropyran-3-yl]oxy-tetrahydropyran-2-carboxylic acid

> <PUBCHEM_IUPAC_CAS_NAME>
(2S,3S,4S,5R,6R)-3,4,5-trihydroxy-6-[[(2R,3S,4S,6S)-4-hydroxy-6-[[(2R,3S,4S,6S)-4-hydroxy-6-[[(2R,4S,6R)-4-hydroxy-6-[[(3S,5R,8R,9S,10S,13R,14S,17R)-14-hydroxy-10,13-dimethyl-17-(5-oxo-2H-furan-3-yl)-1,2,3,4,5,6,7,8,9,11,12,15,16,17-tetradecahydrocyclopenta[a]phenanthren-3-yl]oxy]-2-methyl-3-oxanyl]oxy]-2-methyl-3-oxanyl]oxy]-2-methyl-3-oxanyl]oxy]-2-oxanecarboxylic acid

> <PUBCHEM_IUPAC_NAME_MARKUP>
(2<I>S</I>,3<I>S</I>,4<I>S</I>,5<I>R</I>,6<I>R</I>)-3,4,5-trihydroxy-6-[(2<I>R</I>,3<I>S</I>,4<I>S</I>,6<I>S</I>)-4-hydroxy-6-[(2<I>R</I>,3<I>S</I>,4<I>S</I>,6<I>S</I>)-4-hydroxy-6-[(2<I>R</I>,4<I>S</I>,6<I>R</I>)-4-hydroxy-6-[[(3<I>S</I>,5<I>R</I>,8<I>R</I>,9<I>S</I>,10<I>S</I>,13<I>R</I>,14<I>S</I>,17<I>R</I>)-14-hydroxy-10,13-dimethyl-17-(5-oxo-2<I>H</I>-furan-3-yl)-1,2,3,4,5,6,7,8,9,11,12,15,16,17-tetradecahydrocyclopenta[a]phenanthren-3-yl]oxy]-2-methyloxan-3-yl]oxy-2-methyloxan-3-yl]oxy-2-methyloxan-3-yl]oxyoxane-2-carboxylic acid

> <PUBCHEM_IUPAC_NAME>
(2S,3S,4S,5R,6R)-3,4,5-trihydroxy-6-[(2R,3S,4S,6S)-4-hydroxy-6-[(2R,3S,4S,6S)-4-hydroxy-6-[(2R,4S,6R)-4-hydroxy-6-[[(3S,5R,8R,9S,10S,13R,14S,17R)-14-hydroxy-10,13-dimethyl-17-(5-oxo-2H-furan-3-yl)-1,2,3,4,5,6,7,8,9,11,12,15,16,17-tetradecahydrocyclopenta[a]phenanthren-3-yl]oxy]-2-methyloxan-3-yl]oxy-2-methyloxan-3-yl]oxy-2-methyloxan-3-yl]oxyoxane-2-carboxylic acid

> <PUBCHEM_IUPAC_SYSTEMATIC_NAME>
(2S,3S,4S,5R,6R)-6-[(2R,3S,4S,6S)-6-[(2R,3S,4S,6S)-6-[(2R,4S,6R)-6-[[(3S,5R,8R,9S,10S,13R,14S,17R)-10,13-dimethyl-14-oxidanyl-17-(5-oxidanylidene-2H-furan-3-yl)-1,2,3,4,5,6,7,8,9,11,12,15,16,17-tetradecahydrocyclopenta[a]phenanthren-3-yl]oxy]-2-methyl-4-oxidanyl-oxan-3-yl]oxy-2-methyl-4-oxidanyl-oxan-3-yl]oxy-2-methyl-4-oxidanyl-oxan-3-yl]oxy-3,4,5-tris(oxidanyl)oxane-2-carboxylic acid

> <PUBCHEM_IUPAC_TRADITIONAL_NAME>
(2S,3S,4S,5R,6R)-3,4,5-trihydroxy-6-[(2R,3S,4S,6S)-4-hydroxy-6-[(2R,3S,4S,6S)-4-hydroxy-6-[(2R,4S,6R)-4-hydroxy-6-[[(3S,5R,8R,9S,10S,13R,14S,17R)-14-hydroxy-17-(5-keto-2H-furan-3-yl)-10,13-dimethyl-1,2,3,4,5,6,7,8,9,11,12,15,16,17-tetradecahydrocyclopenta[a]phenanthren-3-yl]oxy]-2-methyl-tetrahydropyran-3-yl]oxy-2-methyl-tetrahydropyran-3-yl]oxy-2-methyl-tetrahydropyran-3-yl]oxy-tetrahydropyran-2-carboxylic acid

> <PUBCHEM_IUPAC_INCHI>
InChI=1S/C47H72O19/c1-20-39(63-34-17-30(49)40(21(2)60-34)64-35-18-31(50)41(22(3)61-35)65-44-38(54)36(52)37(53)42(66-44)43(55)56)29(48)16-33(59-20)62-25-8-11-45(4)24(15-25)6-7-28-27(45)9-12-46(5)26(10-13-47(28,46)57)23-14-32(51)58-19-23/h14,20-22,24-31,33-42,44,48-50,52-54,57H,6-13,15-19H2,1-5H3,(H,55,56)/t20-,21-,22-,24-,25+,26-,27+,28-,29+,30+,31+,33+,34+,35+,36+,37+,38-,39?,40-,41-,42+,44-,45+,46-,47+/m1/s1

> <PUBCHEM_IUPAC_INCHIKEY>
DBYXZCXUSIFREJ-LMCJYOGESA-N

> <PUBCHEM_XLOGP3>
1.5

> <PUBCHEM_EXACT_MASS>
940.46678

> <PUBCHEM_MOLECULAR_FORMULA>
C47H72O19

> <PUBCHEM_MOLECULAR_WEIGHT>
941.1

> <PUBCHEM_OPENEYE_CAN_SMILES>
CC1C(C(CC(O1)OC2CCC3(C(C2)CCC4C3CCC5(C4(CCC5C6=CC(=O)OC6)O)C)C)O)OC7CC(C(C(O7)C)OC8CC(C(C(O8)C)OC9C(C(C(C(O9)C(=O)O)O)O)O)O)O

> <PUBCHEM_OPENEYE_ISO_SMILES>
C[C@@H]1[C@H]([C@H](C[C@@H](O1)OC2[C@H](O[C@H](C[C@@H]2O)O[C@H]3CC[C@]4([C@@H](C3)CC[C@@H]5[C@@H]4CC[C@]6([C@@]5(CC[C@@H]6C7=CC(=O)OC7)O)C)C)C)O)O[C@H]8C[C@@H]([C@@H]([C@H](O8)C)O[C@H]9[C@@H]([C@H]([C@@H]([C@H](O9)C(=O)O)O)O)O)O

> <PUBCHEM_CACTVS_TPSA>
279

> <PUBCHEM_MONOISOTOPIC_WEIGHT>
940.46678

> <PUBCHEM_TOTAL_CHARGE>
0

> <PUBCHEM_HEAVY_ATOM_COUNT>
66

> <PUBCHEM_ATOM_DEF_STEREO_COUNT>
24

> <PUBCHEM_ATOM_UDEF_STEREO_COUNT>
1

> <PUBCHEM_BOND_DEF_STEREO_COUNT>
0

> <PUBCHEM_BOND_UDEF_STEREO_COUNT>
0

> <PUBCHEM_ISOTOPIC_ATOM_COUNT>
0

> <PUBCHEM_COMPONENT_COUNT>
1

> <PUBCHEM_CACTVS_TAUTO_COUNT>
-1

> <PUBCHEM_COORDINATE_TYPE>
1
5
255

> <PUBCHEM_BONDANNOTATIONS>
20  1  6
51  10  6
58  12  6
61  12  5
57  13  6
62  15  6
63  16  5
64  17  6
38  2  6
42  2  5
21  67  6
22  68  5
23  35  6
24  36  6
25  69  6
28  39  6
46  48  5
52  54  5
59  60  5
45  6  6
65  66  5
47  7  3
49  7  5
53  9  6
55  9  5

$$$$
