6443213
  -OEChem-09092008462D

 58 57  0     0  0  0  0  0  0999 V2000
    6.0010   -2.2500    0.0000 O   0  0  0  0  0  0  0  0  0  0  0  0
    6.8671   -3.7500    0.0000 O   0  0  0  0  0  0  0  0  0  0  0  0
    4.2690   -2.2500    0.0000 O   0  0  0  0  0  0  0  0  0  0  0  0
    3.4030   -2.7500    0.0000 O   0  0  0  0  0  0  0  0  0  0  0  0
    2.5369   -2.2500    0.0000 O   0  0  0  0  0  0  0  0  0  0  0  0
   10.3312   -2.7500    0.0000 C   0  0  0  0  0  0  0  0  0  0  0  0
   11.1972   -2.2500    0.0000 C   0  0  0  0  0  0  0  0  0  0  0  0
    9.4651   -2.2500    0.0000 C   0  0  0  0  0  0  0  0  0  0  0  0
   12.0632   -2.7500    0.0000 C   0  0  0  0  0  0  0  0  0  0  0  0
    8.5991   -2.7500    0.0000 C   0  0  0  0  0  0  0  0  0  0  0  0
   12.9292   -2.2500    0.0000 C   0  0  0  0  0  0  0  0  0  0  0  0
    7.7331   -2.2500    0.0000 C   0  0  0  0  0  0  0  0  0  0  0  0
   14.6613    1.7500    0.0000 C   0  0  0  0  0  0  0  0  0  0  0  0
   13.7953    2.2500    0.0000 C   0  0  0  0  0  0  0  0  0  0  0  0
   13.7953   -2.7500    0.0000 C   0  0  0  0  0  0  0  0  0  0  0  0
   14.6613    0.7500    0.0000 C   0  0  0  0  0  0  0  0  0  0  0  0
   13.7953    3.2500    0.0000 C   0  0  0  0  0  0  0  0  0  0  0  0
   14.6613   -2.2500    0.0000 C   0  0  0  0  0  0  0  0  0  0  0  0
    6.8671   -2.7500    0.0000 C   0  0  0  0  0  0  0  0  0  0  0  0
   14.6613   -1.2500    0.0000 C   0  0  0  0  0  0  0  0  0  0  0  0
   15.5273    0.2500    0.0000 C   0  0  0  0  0  0  0  0  0  0  0  0
   15.5273   -0.7500    0.0000 C   0  0  0  0  0  0  0  0  0  0  0  0
   12.9292    3.7500    0.0000 C   0  0  0  0  0  0  0  0  0  0  0  0
    5.1350   -2.7500    0.0000 C   0  0  0  0  0  0  0  0  0  0  0  0
    9.9326   -3.2250    0.0000 H   0  0  0  0  0  0  0  0  0  0  0  0
   10.7297   -3.2250    0.0000 H   0  0  0  0  0  0  0  0  0  0  0  0
   11.5957   -1.7750    0.0000 H   0  0  0  0  0  0  0  0  0  0  0  0
   10.7987   -1.7750    0.0000 H   0  0  0  0  0  0  0  0  0  0  0  0
    9.8637   -1.7750    0.0000 H   0  0  0  0  0  0  0  0  0  0  0  0
    9.0666   -1.7750    0.0000 H   0  0  0  0  0  0  0  0  0  0  0  0
   11.6647   -3.2250    0.0000 H   0  0  0  0  0  0  0  0  0  0  0  0
   12.4617   -3.2250    0.0000 H   0  0  0  0  0  0  0  0  0  0  0  0
    8.2006   -3.2250    0.0000 H   0  0  0  0  0  0  0  0  0  0  0  0
    8.9976   -3.2250    0.0000 H   0  0  0  0  0  0  0  0  0  0  0  0
   13.3278   -1.7750    0.0000 H   0  0  0  0  0  0  0  0  0  0  0  0
   12.5307   -1.7750    0.0000 H   0  0  0  0  0  0  0  0  0  0  0  0
    8.1316   -1.7750    0.0000 H   0  0  0  0  0  0  0  0  0  0  0  0
    7.3346   -1.7750    0.0000 H   0  0  0  0  0  0  0  0  0  0  0  0
   15.2719    1.6423    0.0000 H   0  0  0  0  0  0  0  0  0  0  0  0
   14.8733    2.3326    0.0000 H   0  0  0  0  0  0  0  0  0  0  0  0
   13.1847    2.3577    0.0000 H   0  0  0  0  0  0  0  0  0  0  0  0
   13.5832    1.6674    0.0000 H   0  0  0  0  0  0  0  0  0  0  0  0
   13.7953   -3.3700    0.0000 H   0  0  0  0  0  0  0  0  0  0  0  0
   14.0507    0.8577    0.0000 H   0  0  0  0  0  0  0  0  0  0  0  0
   14.4492    0.1674    0.0000 H   0  0  0  0  0  0  0  0  0  0  0  0
   14.4058    3.1423    0.0000 H   0  0  0  0  0  0  0  0  0  0  0  0
   14.0073    3.8326    0.0000 H   0  0  0  0  0  0  0  0  0  0  0  0
   15.1982   -2.5600    0.0000 H   0  0  0  0  0  0  0  0  0  0  0  0
   14.4492   -0.6674    0.0000 H   0  0  0  0  0  0  0  0  0  0  0  0
   14.0507   -1.3577    0.0000 H   0  0  0  0  0  0  0  0  0  0  0  0
   16.0643    0.5600    0.0000 H   0  0  0  0  0  0  0  0  0  0  0  0
   16.0643   -1.0600    0.0000 H   0  0  0  0  0  0  0  0  0  0  0  0
   13.2392    4.2869    0.0000 H   0  0  0  0  0  0  0  0  0  0  0  0
   12.3923    4.0600    0.0000 H   0  0  0  0  0  0  0  0  0  0  0  0
   12.6192    3.2131    0.0000 H   0  0  0  0  0  0  0  0  0  0  0  0
    4.7365   -3.2250    0.0000 H   0  0  0  0  0  0  0  0  0  0  0  0
    5.5335   -3.2250    0.0000 H   0  0  0  0  0  0  0  0  0  0  0  0
    2.0000   -2.5600    0.0000 H   0  0  0  0  0  0  0  0  0  0  0  0
  1 19  1  0  0  0  0
  1 24  1  0  0  0  0
  2 19  2  0  0  0  0
  3  4  1  0  0  0  0
  3 24  1  0  0  0  0
  4  5  1  0  0  0  0
  5 58  1  0  0  0  0
  6  7  1  0  0  0  0
  6  8  1  0  0  0  0
  6 25  1  0  0  0  0
  6 26  1  0  0  0  0
  7  9  1  0  0  0  0
  7 27  1  0  0  0  0
  7 28  1  0  0  0  0
  8 10  1  0  0  0  0
  8 29  1  0  0  0  0
  8 30  1  0  0  0  0
  9 11  1  0  0  0  0
  9 31  1  0  0  0  0
  9 32  1  0  0  0  0
 10 12  1  0  0  0  0
 10 33  1  0  0  0  0
 10 34  1  0  0  0  0
 11 15  1  0  0  0  0
 11 35  1  0  0  0  0
 11 36  1  0  0  0  0
 12 19  1  0  0  0  0
 12 37  1  0  0  0  0
 12 38  1  0  0  0  0
 13 14  1  0  0  0  0
 13 16  1  0  0  0  0
 13 39  1  0  0  0  0
 13 40  1  0  0  0  0
 14 17  1  0  0  0  0
 14 41  1  0  0  0  0
 14 42  1  0  0  0  0
 15 18  2  0  0  0  0
 15 43  1  0  0  0  0
 16 21  1  0  0  0  0
 16 44  1  0  0  0  0
 16 45  1  0  0  0  0
 17 23  1  0  0  0  0
 17 46  1  0  0  0  0
 17 47  1  0  0  0  0
 18 20  1  0  0  0  0
 18 48  1  0  0  0  0
 20 22  1  0  0  0  0
 20 49  1  0  0  0  0
 20 50  1  0  0  0  0
 21 22  2  0  0  0  0
 21 51  1  0  0  0  0
 22 52  1  0  0  0  0
 23 53  1  0  0  0  0
 23 54  1  0  0  0  0
 23 55  1  0  0  0  0
 24 56  1  0  0  0  0
 24 57  1  0  0  0  0
M  END
> <PUBCHEM_COMPOUND_CID>
6443213

> <PUBCHEM_COMPOUND_CANONICALIZED>
1

> <PUBCHEM_CACTVS_COMPLEXITY>
326

> <PUBCHEM_CACTVS_HBOND_ACCEPTOR>
5

> <PUBCHEM_CACTVS_HBOND_DONOR>
1

> <PUBCHEM_CACTVS_ROTATABLE_BOND>
18

> <PUBCHEM_CACTVS_SUBSKEYS>
AAADcfB4OAAAAAAAAAAAAAAAAAAAAAAAAAAAAAAAAAAAAAAAAAAAGgAADAAACACAgAMCCAAABACIACDSCAAAAAAgAAAICAEAAAgQABIAAQAAAAAEgAAMAAOIyKCAAAAAAAAAAAAAAAAAAAAAAAAAAAAAAA==

> <PUBCHEM_IUPAC_OPENEYE_NAME>
trioxidanylmethyl (9Z,12Z)-octadeca-9,12-dienoate

> <PUBCHEM_IUPAC_CAS_NAME>
(9Z,12Z)-octadeca-9,12-dienoic acid trioxidanylmethyl ester

> <PUBCHEM_IUPAC_NAME_MARKUP>
trioxidanylmethyl (9<I>Z</I>,12<I>Z</I>)-octadeca-9,12-dienoate

> <PUBCHEM_IUPAC_NAME>
trioxidanylmethyl (9Z,12Z)-octadeca-9,12-dienoate

> <PUBCHEM_IUPAC_SYSTEMATIC_NAME>
trioxidanylmethyl (9Z,12Z)-octadeca-9,12-dienoate

> <PUBCHEM_IUPAC_TRADITIONAL_NAME>
(9Z,12Z)-octadeca-9,12-dienoic acid trioxidanylmethyl ester

> <PUBCHEM_IUPAC_INCHI>
InChI=1S/C19H34O5/c1-2-3-4-5-6-7-8-9-10-11-12-13-14-15-16-17-19(20)22-18-23-24-21/h6-7,9-10,21H,2-5,8,11-18H2,1H3/b7-6-,10-9-

> <PUBCHEM_IUPAC_INCHIKEY>
ARDFPBHEICAOCA-HZJYTTRNSA-N

> <PUBCHEM_XLOGP3_AA>
6.4

> <PUBCHEM_EXACT_MASS>
342.240624

> <PUBCHEM_MOLECULAR_FORMULA>
C19H34O5

> <PUBCHEM_MOLECULAR_WEIGHT>
342.5

> <PUBCHEM_OPENEYE_CAN_SMILES>
CCCCCC=CCC=CCCCCCCCC(=O)OCOOO

> <PUBCHEM_OPENEYE_ISO_SMILES>
CCCCC/C=C\C/C=C\CCCCCCCC(=O)OCOOO

> <PUBCHEM_CACTVS_TPSA>
65

> <PUBCHEM_MONOISOTOPIC_WEIGHT>
342.240624

> <PUBCHEM_TOTAL_CHARGE>
0

> <PUBCHEM_HEAVY_ATOM_COUNT>
24

> <PUBCHEM_ATOM_DEF_STEREO_COUNT>
0

> <PUBCHEM_ATOM_UDEF_STEREO_COUNT>
0

> <PUBCHEM_BOND_DEF_STEREO_COUNT>
2

> <PUBCHEM_BOND_UDEF_STEREO_COUNT>
0

> <PUBCHEM_ISOTOPIC_ATOM_COUNT>
0

> <PUBCHEM_COMPONENT_COUNT>
1

> <PUBCHEM_CACTVS_TAUTO_COUNT>
-1

> <PUBCHEM_COORDINATE_TYPE>
1
5
255

$$$$
