10439805
  -OEChem-09092005212D

 97101  0     1  0  0  0  0  0999 V2000
    6.0433   -3.9452    0.0000 O   0  0  0  0  0  0  0  0  0  0  0  0
    7.2694   -2.7496    0.0000 O   0  0  0  0  0  0  0  0  0  0  0  0
    7.8936   -1.6384    0.0000 O   0  0  0  0  0  0  0  0  0  0  0  0
    3.4423   -1.6515    0.0000 O   0  0  0  0  0  0  0  0  0  0  0  0
    4.1124    0.1826    0.0000 O   0  0  0  0  0  0  0  0  0  0  0  0
    5.2769    1.6428    0.0000 O   0  0  0  0  0  0  0  0  0  0  0  0
    8.8339   -1.3633    0.0000 O   0  0  0  0  0  0  0  0  0  0  0  0
    9.0005    1.9283    0.0000 O   0  0  0  0  0  0  0  0  0  0  0  0
    8.4883   -3.9801    0.0000 O   0  0  0  0  0  0  0  0  0  0  0  0
    9.5356   -2.1898    0.0000 O   0  0  0  0  0  0  0  0  0  0  0  0
    3.5517   -3.3801    0.0000 O   0  0  0  0  0  0  0  0  0  0  0  0
    2.9344   -1.0872    0.0000 O   0  0  0  0  0  0  0  0  0  0  0  0
    3.7164    0.8913    0.0000 O   0  0  0  0  0  0  0  0  0  0  0  0
    7.9206    3.2824    0.0000 O   0  0  0  0  0  0  0  0  0  0  0  0
    6.2108   -1.4488    0.0000 C   0  0  1  0  0  0  0  0  0  0  0  0
    5.3099   -1.0149    0.0000 C   0  0  1  0  0  0  0  0  0  0  0  0
    6.3047   -2.4862    0.0000 C   0  0  2  0  0  0  0  0  0  0  0  0
    7.3343   -0.0400    0.0000 C   0  0  1  0  0  0  0  0  0  0  0  0
    7.1118   -1.0149    0.0000 C   0  0  1  0  0  0  0  0  0  0  0  0
    5.4486   -3.0796    0.0000 C   0  0  1  0  0  0  0  0  0  0  0  0
    4.4403   -1.5883    0.0000 C   0  0  2  0  0  0  0  0  0  0  0  0
    5.0873   -0.0400    0.0000 C   0  0  2  0  0  0  0  0  0  0  0  0
    4.5101   -2.6276    0.0000 C   0  0  0  0  0  0  0  0  0  0  0  0
    6.7108    0.7419    0.0000 C   0  0  0  0  0  0  0  0  0  0  0  0
    6.9065   -3.3469    0.0000 C   0  0  0  0  0  0  0  0  0  0  0  0
    5.7108    0.7419    0.0000 C   0  0  1  0  0  0  0  0  0  0  0  0
    8.2641    0.3117    0.0000 C   0  0  0  0  0  0  0  0  0  0  0  0
    8.0841   -0.7017    0.0000 C   0  0  0  0  0  0  0  0  0  0  0  0
    4.4089   -0.5810    0.0000 C   0  0  0  0  0  0  0  0  0  0  0  0
    8.2186    1.3048    0.0000 C   0  0  1  0  0  0  0  0  0  0  0  0
    7.2606    1.5701    0.0000 C   0  0  0  0  0  0  0  0  0  0  0  0
    8.9623   -0.2234    0.0000 C   0  0  0  0  0  0  0  0  0  0  0  0
    7.3232   -1.5639    0.0000 C   0  0  0  0  0  0  0  0  0  0  0  0
    6.9109    2.5069    0.0000 C   0  0  0  0  0  0  0  0  0  0  0  0
    7.5236   -3.7167    0.0000 C   0  0  0  0  0  0  0  0  0  0  0  0
    8.5554   -2.3881    0.0000 C   0  0  0  0  0  0  0  0  0  0  0  0
    2.9980   -2.5473    0.0000 C   0  0  0  0  0  0  0  0  0  0  0  0
    3.1568   -0.1122    0.0000 C   0  0  0  0  0  0  0  0  0  0  0  0
    4.2797    1.7176    0.0000 C   0  0  0  0  0  0  0  0  0  0  0  0
    6.8131   -4.4205    0.0000 C   0  0  0  0  0  0  0  0  0  0  0  0
    8.8514    2.9171    0.0000 C   0  0  0  0  0  0  0  0  0  0  0  0
    8.2372   -3.3360    0.0000 C   0  0  0  0  0  0  0  0  0  0  0  0
    2.0000   -2.6106    0.0000 C   0  0  0  0  0  0  0  0  0  0  0  0
    2.4238    0.5680    0.0000 C   0  0  0  0  0  0  0  0  0  0  0  0
    3.8458    2.6185    0.0000 C   0  0  0  0  0  0  0  0  0  0  0  0
    9.6333    3.5406    0.0000 C   0  0  0  0  0  0  0  0  0  0  0  0
    4.4092    3.4448    0.0000 C   0  0  0  0  0  0  0  0  0  0  0  0
    2.8486    2.6933    0.0000 C   0  0  0  0  0  0  0  0  0  0  0  0
    3.9753    4.3457    0.0000 C   0  0  0  0  0  0  0  0  0  0  0  0
    2.4148    3.5942    0.0000 C   0  0  0  0  0  0  0  0  0  0  0  0
    2.9781    4.4205    0.0000 C   0  0  0  0  0  0  0  0  0  0  0  0
    6.9502   -1.8681    0.0000 H   0  0  0  0  0  0  0  0  0  0  0  0
    7.0424   -1.6310    0.0000 H   0  0  0  0  0  0  0  0  0  0  0  0
    4.8953   -3.7248    0.0000 H   0  0  0  0  0  0  0  0  0  0  0  0
    4.2434   -1.0004    0.0000 H   0  0  0  0  0  0  0  0  0  0  0  0
    4.8826    0.5452    0.0000 H   0  0  0  0  0  0  0  0  0  0  0  0
    3.8935   -2.5627    0.0000 H   0  0  0  0  0  0  0  0  0  0  0  0
    4.3406   -3.2240    0.0000 H   0  0  0  0  0  0  0  0  0  0  0  0
    7.2604   -3.8560    0.0000 H   0  0  0  0  0  0  0  0  0  0  0  0
    7.4151   -2.9923    0.0000 H   0  0  0  0  0  0  0  0  0  0  0  0
    6.0407    1.2668    0.0000 H   0  0  0  0  0  0  0  0  0  0  0  0
    8.4213   -0.2880    0.0000 H   0  0  0  0  0  0  0  0  0  0  0  0
    8.8770    0.4050    0.0000 H   0  0  0  0  0  0  0  0  0  0  0  0
    4.6779   -0.0224    0.0000 H   0  0  0  0  0  0  0  0  0  0  0  0
    3.8503   -0.3120    0.0000 H   0  0  0  0  0  0  0  0  0  0  0  0
    4.1399   -1.1396    0.0000 H   0  0  0  0  0  0  0  0  0  0  0  0
    8.0945    1.9122    0.0000 H   0  0  0  0  0  0  0  0  0  0  0  0
    9.2588   -0.7679    0.0000 H   0  0  0  0  0  0  0  0  0  0  0  0
    9.5068    0.0731    0.0000 H   0  0  0  0  0  0  0  0  0  0  0  0
    8.6658    0.3211    0.0000 H   0  0  0  0  0  0  0  0  0  0  0  0
    6.8584   -1.1537    0.0000 H   0  0  0  0  0  0  0  0  0  0  0  0
    6.9130   -2.0288    0.0000 H   0  0  0  0  0  0  0  0  0  0  0  0
    7.7881   -1.9741    0.0000 H   0  0  0  0  0  0  0  0  0  0  0  0
    7.4917    2.7238    0.0000 H   0  0  0  0  0  0  0  0  0  0  0  0
    6.6940    3.0878    0.0000 H   0  0  0  0  0  0  0  0  0  0  0  0
    6.3300    2.2901    0.0000 H   0  0  0  0  0  0  0  0  0  0  0  0
    9.4216   -1.1659    0.0000 H   0  0  0  0  0  0  0  0  0  0  0  0
    6.3768   -3.9800    0.0000 H   0  0  0  0  0  0  0  0  0  0  0  0
    6.3726   -4.8568    0.0000 H   0  0  0  0  0  0  0  0  0  0  0  0
    7.2494   -4.8610    0.0000 H   0  0  0  0  0  0  0  0  0  0  0  0
    7.6494   -3.1387    0.0000 H   0  0  0  0  0  0  0  0  0  0  0  0
    8.0399   -3.9238    0.0000 H   0  0  0  0  0  0  0  0  0  0  0  0
    8.8250   -3.5333    0.0000 H   0  0  0  0  0  0  0  0  0  0  0  0
    1.9608   -1.9918    0.0000 H   0  0  0  0  0  0  0  0  0  0  0  0
    1.3812   -2.6498    0.0000 H   0  0  0  0  0  0  0  0  0  0  0  0
    2.0392   -3.2294    0.0000 H   0  0  0  0  0  0  0  0  0  0  0  0
    2.8455    1.0225    0.0000 H   0  0  0  0  0  0  0  0  0  0  0  0
    1.9693    0.9898    0.0000 H   0  0  0  0  0  0  0  0  0  0  0  0
    2.0021    0.1136    0.0000 H   0  0  0  0  0  0  0  0  0  0  0  0
   10.0198    3.0558    0.0000 H   0  0  0  0  0  0  0  0  0  0  0  0
   10.1180    3.9272    0.0000 H   0  0  0  0  0  0  0  0  0  0  0  0
    9.2467    4.0253    0.0000 H   0  0  0  0  0  0  0  0  0  0  0  0
    5.0274    3.3984    0.0000 H   0  0  0  0  0  0  0  0  0  0  0  0
    2.4994    2.1810    0.0000 H   0  0  0  0  0  0  0  0  0  0  0  0
    4.3246    4.8580    0.0000 H   0  0  0  0  0  0  0  0  0  0  0  0
    1.7965    3.6406    0.0000 H   0  0  0  0  0  0  0  0  0  0  0  0
    2.7091    4.9791    0.0000 H   0  0  0  0  0  0  0  0  0  0  0  0
  1 20  1  0  0  0  0
  1 25  1  0  0  0  0
 17  2  1  1  0  0  0
  2 35  1  0  0  0  0
 19  3  1  1  0  0  0
  3 36  1  0  0  0  0
 21  4  1  6  0  0  0
  4 37  1  0  0  0  0
 22  5  1  1  0  0  0
  5 38  1  0  0  0  0
 26  6  1  6  0  0  0
  6 39  1  0  0  0  0
  7 28  1  0  0  0  0
  7 77  1  0  0  0  0
 30  8  1  1  0  0  0
  8 41  1  0  0  0  0
  9 35  2  0  0  0  0
 10 36  2  0  0  0  0
 11 37  2  0  0  0  0
 12 38  2  0  0  0  0
 13 39  2  0  0  0  0
 14 41  2  0  0  0  0
 15 16  1  0  0  0  0
 15 17  1  0  0  0  0
 15 19  1  0  0  0  0
 15 52  1  1  0  0  0
 16 21  1  0  0  0  0
 16 22  1  0  0  0  0
 16 29  1  6  0  0  0
 17 20  1  0  0  0  0
 17 25  1  0  0  0  0
 18 19  1  0  0  0  0
 18 24  1  0  0  0  0
 18 27  1  0  0  0  0
 18 28  1  6  0  0  0
 19 53  1  0  0  0  0
 20 23  1  0  0  0  0
 20 54  1  1  0  0  0
 21 23  1  0  0  0  0
 21 55  1  0  0  0  0
 22 26  1  0  0  0  0
 22 56  1  0  0  0  0
 23 57  1  0  0  0  0
 23 58  1  0  0  0  0
 24 26  1  0  0  0  0
 24 31  2  0  0  0  0
 25 59  1  0  0  0  0
 25 60  1  0  0  0  0
 26 61  1  0  0  0  0
 27 30  1  0  0  0  0
 27 62  1  0  0  0  0
 27 63  1  0  0  0  0
 28 32  1  0  0  0  0
 28 33  1  0  0  0  0
 29 64  1  0  0  0  0
 29 65  1  0  0  0  0
 29 66  1  0  0  0  0
 30 31  1  0  0  0  0
 30 67  1  0  0  0  0
 31 34  1  0  0  0  0
 32 68  1  0  0  0  0
 32 69  1  0  0  0  0
 32 70  1  0  0  0  0
 33 71  1  0  0  0  0
 33 72  1  0  0  0  0
 33 73  1  0  0  0  0
 34 74  1  0  0  0  0
 34 75  1  0  0  0  0
 34 76  1  0  0  0  0
 35 40  1  0  0  0  0
 36 42  1  0  0  0  0
 37 43  1  0  0  0  0
 38 44  1  0  0  0  0
 39 45  1  0  0  0  0
 40 78  1  0  0  0  0
 40 79  1  0  0  0  0
 40 80  1  0  0  0  0
 41 46  1  0  0  0  0
 42 81  1  0  0  0  0
 42 82  1  0  0  0  0
 42 83  1  0  0  0  0
 43 84  1  0  0  0  0
 43 85  1  0  0  0  0
 43 86  1  0  0  0  0
 44 87  1  0  0  0  0
 44 88  1  0  0  0  0
 44 89  1  0  0  0  0
 45 47  2  0  0  0  0
 45 48  1  0  0  0  0
 46 90  1  0  0  0  0
 46 91  1  0  0  0  0
 46 92  1  0  0  0  0
 47 49  1  0  0  0  0
 47 93  1  0  0  0  0
 48 50  2  0  0  0  0
 48 94  1  0  0  0  0
 49 51  2  0  0  0  0
 49 95  1  0  0  0  0
 50 51  1  0  0  0  0
 50 96  1  0  0  0  0
 51 97  1  0  0  0  0
M  END
> <PUBCHEM_COMPOUND_CID>
10439805

> <PUBCHEM_COMPOUND_CANONICALIZED>
1

> <PUBCHEM_CACTVS_COMPLEXITY>
1490

> <PUBCHEM_CACTVS_HBOND_ACCEPTOR>
14

> <PUBCHEM_CACTVS_HBOND_DONOR>
1

> <PUBCHEM_CACTVS_ROTATABLE_BOND>
14

> <PUBCHEM_CACTVS_SUBSKEYS>
AAADcfB8PAAAAAAAAAAAAAAAAABIAQAAAAAwYAAABgASAACBAAAAGgAACAAAD1SgmAIyCIAABgCIAiDSCAACAAAkAAAIiAEACMgJJjKANRiCcQAlwAEKqYfI6PyPgAAAAAAAAABCAAYQADCAAAAAAAAAAA==

> <PUBCHEM_IUPAC_OPENEYE_NAME>
[(1R,2S,3S,5S,8R,9R,10S,11S,13R,16S)-2,5,9,11,16-pentaacetoxy-3-(1-hydroxy-1-methyl-ethyl)-6,10-dimethyl-14-oxatetracyclo[8.6.0.03,7.013,16]hexadec-6-en-8-yl] benzoate

> <PUBCHEM_IUPAC_CAS_NAME>
benzoic acid [(1R,2S,3S,5S,8R,9R,10S,11S,13R,16S)-2,5,9,11,16-pentaacetyloxy-3-(2-hydroxypropan-2-yl)-6,10-dimethyl-14-oxatetracyclo[8.6.0.03,7.013,16]hexadec-6-en-8-yl] ester

> <PUBCHEM_IUPAC_NAME_MARKUP>
[(1<I>R</I>,2<I>S</I>,3<I>S</I>,5<I>S</I>,8<I>R</I>,9<I>R</I>,10<I>S</I>,11<I>S</I>,13<I>R</I>,16<I>S</I>)-2,5,9,11,16-pentaacetyloxy-3-(2-hydroxypropan-2-yl)-6,10-dimethyl-14-oxatetracyclo[8.6.0.0<SUP>3,7</SUP>.0<SUP>13,16</SUP>]hexadec-6-en-8-yl] benzoate

> <PUBCHEM_IUPAC_NAME>
[(1R,2S,3S,5S,8R,9R,10S,11S,13R,16S)-2,5,9,11,16-pentaacetyloxy-3-(2-hydroxypropan-2-yl)-6,10-dimethyl-14-oxatetracyclo[8.6.0.03,7.013,16]hexadec-6-en-8-yl] benzoate

> <PUBCHEM_IUPAC_SYSTEMATIC_NAME>
[(1R,2S,3S,5S,8R,9R,10S,11S,13R,16S)-2,5,9,11,16-pentaacetyloxy-6,10-dimethyl-3-(2-oxidanylpropan-2-yl)-14-oxatetracyclo[8.6.0.03,7.013,16]hexadec-6-en-8-yl] benzoate

> <PUBCHEM_IUPAC_TRADITIONAL_NAME>
benzoic acid [(1R,2S,3S,5S,8R,9R,10S,11S,13R,16S)-2,5,9,11,16-pentaacetoxy-3-(1-hydroxy-1-methyl-ethyl)-6,10-dimethyl-14-oxatetracyclo[8.6.0.03,7.013,16]hexadec-6-en-8-yl] ester

> <PUBCHEM_IUPAC_INCHI>
InChI=1S/C37H46O14/c1-18-25(46-19(2)38)16-36(34(7,8)44)28(18)29(50-33(43)24-13-11-10-12-14-24)31(48-21(4)40)35(9)26(47-20(3)39)15-27-37(17-45-27,51-23(6)42)30(35)32(36)49-22(5)41/h10-14,25-27,29-32,44H,15-17H2,1-9H3/t25-,26-,27+,29+,30-,31-,32-,35+,36-,37-/m0/s1

> <PUBCHEM_IUPAC_INCHIKEY>
OGIAPYMKNMJXRA-QHJBDEMPSA-N

> <PUBCHEM_XLOGP3_AA>
1.9

> <PUBCHEM_EXACT_MASS>
714.288756

> <PUBCHEM_MOLECULAR_FORMULA>
C37H46O14

> <PUBCHEM_MOLECULAR_WEIGHT>
714.8

> <PUBCHEM_OPENEYE_CAN_SMILES>
CC1=C2C(C(C3(C(CC4C(C3C(C2(CC1OC(=O)C)C(C)(C)O)OC(=O)C)(CO4)OC(=O)C)OC(=O)C)C)OC(=O)C)OC(=O)C5=CC=CC=C5

> <PUBCHEM_OPENEYE_ISO_SMILES>
CC1=C2[C@H]([C@@H]([C@@]3([C@H](C[C@@H]4[C@]([C@H]3[C@@H]([C@@]2(C[C@@H]1OC(=O)C)C(C)(C)O)OC(=O)C)(CO4)OC(=O)C)OC(=O)C)C)OC(=O)C)OC(=O)C5=CC=CC=C5

> <PUBCHEM_CACTVS_TPSA>
187

> <PUBCHEM_MONOISOTOPIC_WEIGHT>
714.288756

> <PUBCHEM_TOTAL_CHARGE>
0

> <PUBCHEM_HEAVY_ATOM_COUNT>
51

> <PUBCHEM_ATOM_DEF_STEREO_COUNT>
10

> <PUBCHEM_ATOM_UDEF_STEREO_COUNT>
0

> <PUBCHEM_BOND_DEF_STEREO_COUNT>
0

> <PUBCHEM_BOND_UDEF_STEREO_COUNT>
0

> <PUBCHEM_ISOTOPIC_ATOM_COUNT>
0

> <PUBCHEM_COMPONENT_COUNT>
1

> <PUBCHEM_CACTVS_TAUTO_COUNT>
-1

> <PUBCHEM_COORDINATE_TYPE>
1
5
255

> <PUBCHEM_BONDANNOTATIONS>
15  52  5
16  29  6
18  28  6
17  2  5
20  54  5
19  3  5
21  4  6
45  47  8
45  48  8
47  49  8
48  50  8
49  51  8
22  5  5
50  51  8
26  6  6
30  8  5

$$$$
