24791040
  -OEChem-09092004232D

125132  0     1  0  0  0  0  0999 V2000
    8.5878   -5.5682    0.0000 O   0  0  0  0  0  0  0  0  0  0  0  0
    9.7448   -4.3057    0.0000 O   0  0  0  0  0  0  0  0  0  0  0  0
   10.5048   -2.9424    0.0000 O   0  0  0  0  0  0  0  0  0  0  0  0
    5.9357   -2.9115    0.0000 O   0  0  0  0  0  0  0  0  0  0  0  0
   10.9216   -1.7597    0.0000 O   0  0  0  0  0  0  0  0  0  0  0  0
    6.3084   -1.7597    0.0000 O   0  0  0  0  0  0  0  0  0  0  0  0
    6.9840   -0.1287    0.0000 O   0  0  0  0  0  0  0  0  0  0  0  0
   11.0270    0.6523    0.0000 O   0  0  0  0  0  0  0  0  0  0  0  0
    5.2544   -4.5040    0.0000 O   0  0  0  0  0  0  0  0  0  0  0  0
   11.0308   -5.4660    0.0000 O   0  0  0  0  0  0  0  0  0  0  0  0
    4.0969   -2.1249    0.0000 O   0  0  0  0  0  0  0  0  0  0  0  0
   10.9532   -4.6154    0.0000 O   0  0  0  0  0  0  0  0  0  0  0  0
    2.4962   -3.3240    0.0000 O   0  0  0  0  0  0  0  0  0  0  0  0
    2.7343   -5.3097    0.0000 O   0  0  0  0  0  0  0  0  0  0  0  0
    9.8022    1.8770    0.0000 O   0  0  0  0  0  0  0  0  0  0  0  0
   12.4412    2.0665    0.0000 O   0  0  0  0  0  0  0  0  0  0  0  0
   10.6988    5.2231    0.0000 O   0  0  0  0  0  0  0  0  0  0  0  0
   10.2505    3.5500    0.0000 N   0  0  0  0  0  0  0  0  0  0  0  0
    8.6150   -3.0663    0.0000 C   0  0  3  0  0  0  0  0  0  0  0  0
    8.7669   -4.0968    0.0000 C   0  0  2  0  0  0  0  0  0  0  0  0
    7.6911   -2.6836    0.0000 C   0  0  1  0  0  0  0  0  0  0  0  0
    7.9454   -4.7372    0.0000 C   0  0  1  0  0  0  0  0  0  0  0  0
    9.5389   -2.6836    0.0000 C   0  0  1  0  0  0  0  0  0  0  0  0
    9.9216   -1.7597    0.0000 C   0  0  2  0  0  0  0  0  0  0  0  0
    6.8551   -3.3049    0.0000 C   0  0  2  0  0  0  0  0  0  0  0  0
    6.9831   -4.3386    0.0000 C   0  0  0  0  0  0  0  0  0  0  0  0
    9.5389   -0.8358    0.0000 C   0  0  0  0  0  0  0  0  0  0  0  0
    9.4160   -4.9224    0.0000 C   0  0  0  0  0  0  0  0  0  0  0  0
    7.3084   -1.7597    0.0000 C   0  0  0  0  0  0  0  0  0  0  0  0
   10.5947   -1.0180    0.0000 C   0  0  0  0  0  0  0  0  0  0  0  0
    8.6150   -0.4532    0.0000 C   0  0  0  0  0  0  0  0  0  0  0  0
    6.7672   -2.3009    0.0000 C   0  0  0  0  0  0  0  0  0  0  0  0
    7.6911   -0.8358    0.0000 C   0  0  1  0  0  0  0  0  0  0  0  0
   10.3199   -0.0549    0.0000 C   0  0  1  0  0  0  0  0  0  0  0  0
    9.3567    0.2200    0.0000 C   0  0  0  0  0  0  0  0  0  0  0  0
    9.8365    0.2750    0.0000 C   0  0  0  0  0  0  0  0  0  0  0  0
   10.6497   -0.5382    0.0000 C   0  0  0  0  0  0  0  0  0  0  0  0
    5.1353   -3.5111    0.0000 C   0  0  3  0  0  0  0  0  0  0  0  0
   10.0529   -5.2571    0.0000 C   0  0  0  0  0  0  0  0  0  0  0  0
    9.1292    1.1937    0.0000 C   0  0  0  0  0  0  0  0  0  0  0  0
   11.2119   -3.6495    0.0000 C   0  0  0  0  0  0  0  0  0  0  0  0
    4.2159   -3.1178    0.0000 C   0  0  3  0  0  0  0  0  0  0  0  0
    9.3830   -5.9995    0.0000 C   0  0  0  0  0  0  0  0  0  0  0  0
    3.4156   -3.7173    0.0000 C   0  0  3  0  0  0  0  0  0  0  0  0
   10.7682    1.6182    0.0000 C   0  0  0  0  0  0  0  0  0  0  0  0
   12.1778   -3.3907    0.0000 C   0  0  0  0  0  0  0  0  0  0  0  0
    3.5347   -4.7102    0.0000 C   0  0  3  0  0  0  0  0  0  0  0  0
    4.4540   -5.1035    0.0000 C   0  0  0  0  0  0  0  0  0  0  0  0
   11.4753    2.3253    0.0000 C   0  0  1  0  0  0  0  0  0  0  0  0
   12.4367   -2.4248    0.0000 C   0  0  0  0  0  0  0  0  0  0  0  0
   12.8850   -4.0978    0.0000 C   0  0  0  0  0  0  0  0  0  0  0  0
   11.2164    3.2912    0.0000 C   0  0  2  0  0  0  0  0  0  0  0  0
   13.4026   -2.1660    0.0000 C   0  0  0  0  0  0  0  0  0  0  0  0
   13.8509   -3.8390    0.0000 C   0  0  0  0  0  0  0  0  0  0  0  0
   14.1097   -2.8731    0.0000 C   0  0  0  0  0  0  0  0  0  0  0  0
   11.9235    3.9983    0.0000 C   0  0  0  0  0  0  0  0  0  0  0  0
   12.8895    3.7395    0.0000 C   0  0  0  0  0  0  0  0  0  0  0  0
   11.6647    4.9642    0.0000 C   0  0  0  0  0  0  0  0  0  0  0  0
    9.9917    4.5160    0.0000 C   0  0  0  0  0  0  0  0  0  0  0  0
   13.5966    4.4466    0.0000 C   0  0  0  0  0  0  0  0  0  0  0  0
   12.3718    5.6714    0.0000 C   0  0  0  0  0  0  0  0  0  0  0  0
    9.0258    4.7748    0.0000 C   0  0  0  0  0  0  0  0  0  0  0  0
   13.3378    5.4125    0.0000 C   0  0  0  0  0  0  0  0  0  0  0  0
    8.7670    5.7407    0.0000 C   0  0  0  0  0  0  0  0  0  0  0  0
    8.3187    4.0677    0.0000 C   0  0  0  0  0  0  0  0  0  0  0  0
    7.8010    5.9995    0.0000 C   0  0  0  0  0  0  0  0  0  0  0  0
    7.3527    4.3265    0.0000 C   0  0  0  0  0  0  0  0  0  0  0  0
    7.0939    5.2924    0.0000 C   0  0  0  0  0  0  0  0  0  0  0  0
    9.1543   -3.3721    0.0000 H   0  0  0  0  0  0  0  0  0  0  0  0
    7.4292   -5.4125    0.0000 H   0  0  0  0  0  0  0  0  0  0  0  0
    9.5794   -3.3023    0.0000 H   0  0  0  0  0  0  0  0  0  0  0  0
    6.3596   -3.6776    0.0000 H   0  0  0  0  0  0  0  0  0  0  0  0
    6.3638   -4.3084    0.0000 H   0  0  0  0  0  0  0  0  0  0  0  0
    6.8473   -4.9436    0.0000 H   0  0  0  0  0  0  0  0  0  0  0  0
    9.7979   -5.4108    0.0000 H   0  0  0  0  0  0  0  0  0  0  0  0
    9.9039   -4.5398    0.0000 H   0  0  0  0  0  0  0  0  0  0  0  0
   10.9692   -1.5121    0.0000 H   0  0  0  0  0  0  0  0  0  0  0  0
   11.1493   -0.7410    0.0000 H   0  0  0  0  0  0  0  0  0  0  0  0
    7.0045   -1.7281    0.0000 H   0  0  0  0  0  0  0  0  0  0  0  0
    6.1944   -2.0636    0.0000 H   0  0  0  0  0  0  0  0  0  0  0  0
    6.5300   -2.8737    0.0000 H   0  0  0  0  0  0  0  0  0  0  0  0
    7.8121   -0.2277    0.0000 H   0  0  0  0  0  0  0  0  0  0  0  0
   10.1642    0.5453    0.0000 H   0  0  0  0  0  0  0  0  0  0  0  0
   10.4354    0.1145    0.0000 H   0  0  0  0  0  0  0  0  0  0  0  0
    9.9970    0.8739    0.0000 H   0  0  0  0  0  0  0  0  0  0  0  0
    9.2376    0.4354    0.0000 H   0  0  0  0  0  0  0  0  0  0  0  0
   10.8102   -1.1371    0.0000 H   0  0  0  0  0  0  0  0  0  0  0  0
   11.2486   -0.3777    0.0000 H   0  0  0  0  0  0  0  0  0  0  0  0
   10.4892    0.0607    0.0000 H   0  0  0  0  0  0  0  0  0  0  0  0
   11.2316   -1.2228    0.0000 H   0  0  0  0  0  0  0  0  0  0  0  0
    5.0615   -2.8955    0.0000 H   0  0  0  0  0  0  0  0  0  0  0  0
    9.7330    1.3348    0.0000 H   0  0  0  0  0  0  0  0  0  0  0  0
    8.9882    1.7975    0.0000 H   0  0  0  0  0  0  0  0  0  0  0  0
    8.5255    1.0527    0.0000 H   0  0  0  0  0  0  0  0  0  0  0  0
    7.1445    0.4701    0.0000 H   0  0  0  0  0  0  0  0  0  0  0  0
    3.6459   -2.8739    0.0000 H   0  0  0  0  0  0  0  0  0  0  0  0
    8.9226   -5.5842    0.0000 H   0  0  0  0  0  0  0  0  0  0  0  0
    8.9676   -6.4598    0.0000 H   0  0  0  0  0  0  0  0  0  0  0  0
    9.8433   -6.4149    0.0000 H   0  0  0  0  0  0  0  0  0  0  0  0
    2.9194   -4.0890    0.0000 H   0  0  0  0  0  0  0  0  0  0  0  0
    4.0309   -4.3385    0.0000 H   0  0  0  0  0  0  0  0  0  0  0  0
    4.1149   -5.6225    0.0000 H   0  0  0  0  0  0  0  0  0  0  0  0
    4.9063   -5.5277    0.0000 H   0  0  0  0  0  0  0  0  0  0  0  0
    3.5269   -1.8810    0.0000 H   0  0  0  0  0  0  0  0  0  0  0  0
   11.6357    1.7264    0.0000 H   0  0  0  0  0  0  0  0  0  0  0  0
   11.9983   -1.9864    0.0000 H   0  0  0  0  0  0  0  0  0  0  0  0
   12.7245   -4.6967    0.0000 H   0  0  0  0  0  0  0  0  0  0  0  0
    2.0000   -3.6957    0.0000 H   0  0  0  0  0  0  0  0  0  0  0  0
    2.8081   -5.9253    0.0000 H   0  0  0  0  0  0  0  0  0  0  0  0
   11.0560    3.8901    0.0000 H   0  0  0  0  0  0  0  0  0  0  0  0
   13.5631   -1.5671    0.0000 H   0  0  0  0  0  0  0  0  0  0  0  0
   14.2893   -4.2774    0.0000 H   0  0  0  0  0  0  0  0  0  0  0  0
   12.6017    1.4676    0.0000 H   0  0  0  0  0  0  0  0  0  0  0  0
   14.7086   -2.7126    0.0000 H   0  0  0  0  0  0  0  0  0  0  0  0
    9.8121    3.1116    0.0000 H   0  0  0  0  0  0  0  0  0  0  0  0
   13.0499    3.1406    0.0000 H   0  0  0  0  0  0  0  0  0  0  0  0
   11.0659    5.1247    0.0000 H   0  0  0  0  0  0  0  0  0  0  0  0
   14.1955    4.2861    0.0000 H   0  0  0  0  0  0  0  0  0  0  0  0
   12.2114    6.2702    0.0000 H   0  0  0  0  0  0  0  0  0  0  0  0
   13.7762    5.8509    0.0000 H   0  0  0  0  0  0  0  0  0  0  0  0
    9.2054    6.1791    0.0000 H   0  0  0  0  0  0  0  0  0  0  0  0
    8.4791    3.4688    0.0000 H   0  0  0  0  0  0  0  0  0  0  0  0
    7.6406    6.5984    0.0000 H   0  0  0  0  0  0  0  0  0  0  0  0
    6.9143    3.8881    0.0000 H   0  0  0  0  0  0  0  0  0  0  0  0
    6.4950    5.4529    0.0000 H   0  0  0  0  0  0  0  0  0  0  0  0
  1 22  1  0  0  0  0
  1 28  1  0  0  0  0
 20  2  1  1  0  0  0
  2 39  1  0  0  0  0
  3 23  1  0  0  0  0
  3 41  1  0  0  0  0
 25  4  1  6  0  0  0
  4 38  1  0  0  0  0
 24  5  1  6  0  0  0
  5 90  1  0  0  0  0
  6 29  2  0  0  0  0
 33  7  1  6  0  0  0
  7 95  1  0  0  0  0
 34  8  1  1  0  0  0
  8 45  1  0  0  0  0
  9 38  1  0  0  0  0
  9 48  1  0  0  0  0
 10 39  2  0  0  0  0
 11 42  1  0  0  0  0
 11104  1  0  0  0  0
 12 41  2  0  0  0  0
 13 44  1  0  0  0  0
 13108  1  0  0  0  0
 14 47  1  0  0  0  0
 14109  1  0  0  0  0
 15 45  2  0  0  0  0
 49 16  1  1  0  0  0
 16113  1  0  0  0  0
 17 59  2  0  0  0  0
 52 18  1  1  0  0  0
 18 59  1  0  0  0  0
 18115  1  0  0  0  0
 19 20  1  0  0  0  0
 19 21  1  0  0  0  0
 19 23  1  0  0  0  0
 19 69  1  0  0  0  0
 20 22  1  0  0  0  0
 20 28  1  0  0  0  0
 21 25  1  0  0  0  0
 21 29  1  0  0  0  0
 21 32  1  6  0  0  0
 22 26  1  0  0  0  0
 22 70  1  1  0  0  0
 23 24  1  0  0  0  0
 23 71  1  0  0  0  0
 24 27  1  0  0  0  0
 24 30  1  0  0  0  0
 25 26  1  0  0  0  0
 25 72  1  0  0  0  0
 26 73  1  0  0  0  0
 26 74  1  0  0  0  0
 27 31  1  0  0  0  0
 27 36  1  0  0  0  0
 27 37  1  0  0  0  0
 28 75  1  0  0  0  0
 28 76  1  0  0  0  0
 29 33  1  0  0  0  0
 30 34  1  0  0  0  0
 30 77  1  0  0  0  0
 30 78  1  0  0  0  0
 31 33  1  0  0  0  0
 31 35  2  0  0  0  0
 32 79  1  0  0  0  0
 32 80  1  0  0  0  0
 32 81  1  0  0  0  0
 33 82  1  0  0  0  0
 34 35  1  0  0  0  0
 34 83  1  0  0  0  0
 35 40  1  0  0  0  0
 36 84  1  0  0  0  0
 36 85  1  0  0  0  0
 36 86  1  0  0  0  0
 37 87  1  0  0  0  0
 37 88  1  0  0  0  0
 37 89  1  0  0  0  0
 38 42  1  0  0  0  0
 38 91  1  0  0  0  0
 39 43  1  0  0  0  0
 40 92  1  0  0  0  0
 40 93  1  0  0  0  0
 40 94  1  0  0  0  0
 41 46  1  0  0  0  0
 42 44  1  0  0  0  0
 42 96  1  0  0  0  0
 43 97  1  0  0  0  0
 43 98  1  0  0  0  0
 43 99  1  0  0  0  0
 44 47  1  0  0  0  0
 44100  1  0  0  0  0
 45 49  1  0  0  0  0
 46 50  2  0  0  0  0
 46 51  1  0  0  0  0
 47 48  1  0  0  0  0
 47101  1  0  0  0  0
 48102  1  0  0  0  0
 48103  1  0  0  0  0
 49 52  1  0  0  0  0
 49105  1  0  0  0  0
 50 53  1  0  0  0  0
 50106  1  0  0  0  0
 51 54  2  0  0  0  0
 51107  1  0  0  0  0
 52 56  1  0  0  0  0
 52110  1  0  0  0  0
 53 55  2  0  0  0  0
 53111  1  0  0  0  0
 54 55  1  0  0  0  0
 54112  1  0  0  0  0
 55114  1  0  0  0  0
 56 57  2  0  0  0  0
 56 58  1  0  0  0  0
 57 60  1  0  0  0  0
 57116  1  0  0  0  0
 58 61  2  0  0  0  0
 58117  1  0  0  0  0
 59 62  1  0  0  0  0
 60 63  2  0  0  0  0
 60118  1  0  0  0  0
 61 63  1  0  0  0  0
 61119  1  0  0  0  0
 62 64  2  0  0  0  0
 62 65  1  0  0  0  0
 63120  1  0  0  0  0
 64 66  1  0  0  0  0
 64121  1  0  0  0  0
 65 67  2  0  0  0  0
 65122  1  0  0  0  0
 66 68  2  0  0  0  0
 66123  1  0  0  0  0
 67 68  1  0  0  0  0
 67124  1  0  0  0  0
 68125  1  0  0  0  0
M  END
> <PUBCHEM_COMPOUND_CID>
24791040

> <PUBCHEM_COMPOUND_CANONICALIZED>
1

> <PUBCHEM_CACTVS_COMPLEXITY>
1940

> <PUBCHEM_CACTVS_HBOND_ACCEPTOR>
17

> <PUBCHEM_CACTVS_HBOND_DONOR>
7

> <PUBCHEM_CACTVS_ROTATABLE_BOND>
14

> <PUBCHEM_CACTVS_SUBSKEYS>
AAADcfB+PgAAAAAAAAAAAAAAAABIAAAAAAA0YMGCAAAaIACBUAAAHgAQCAAAD3zxmAcyCILABgCIAqHSGAKCAAAkAAAIiIFIDMgbNj6AtRmmcQhn9gGfuYfa7PzPgAAAAAAAAABCAAYQADCAAAAAAAAAAA==

> <PUBCHEM_IUPAC_OPENEYE_NAME>
[(1S,2S,4S,7R,9S,10S,12R,15S)-4-acetoxy-15-[(2R,3S)-3-benzamido-2-hydroxy-3-phenyl-propanoyl]oxy-1,12-dihydroxy-10,14,17,17-tetramethyl-11-oxo-9-(3,4,5-trihydroxytetrahydropyran-2-yl)oxy-6-oxatetracyclo[11.3.1.03,10.04,7]heptadec-13-en-2-yl] benzoate

> <PUBCHEM_IUPAC_CAS_NAME>
benzoic acid [(1S,2S,4S,7R,9S,10S,12R,15S)-4-acetyloxy-15-[(2R,3S)-3-benzamido-2-hydroxy-1-oxo-3-phenylpropoxy]-1,12-dihydroxy-10,14,17,17-tetramethyl-11-oxo-9-[(3,4,5-trihydroxy-2-oxanyl)oxy]-6-oxatetracyclo[11.3.1.03,10.04,7]heptadec-13-en-2-yl] ester

> <PUBCHEM_IUPAC_NAME_MARKUP>
[(1<I>S</I>,2<I>S</I>,4<I>S</I>,7<I>R</I>,9<I>S</I>,10<I>S</I>,12<I>R</I>,15<I>S</I>)-4-acetyloxy-15-[(2<I>R</I>,3<I>S</I>)-3-benzamido-2-hydroxy-3-phenylpropanoyl]oxy-1,12-dihydroxy-10,14,17,17-tetramethyl-11-oxo-9-(3,4,5-trihydroxyoxan-2-yl)oxy-6-oxatetracyclo[11.3.1.0<SUP>3,10</SUP>.0<SUP>4,7</SUP>]heptadec-13-en-2-yl] benzoate

> <PUBCHEM_IUPAC_NAME>
[(1S,2S,4S,7R,9S,10S,12R,15S)-4-acetyloxy-15-[(2R,3S)-3-benzamido-2-hydroxy-3-phenylpropanoyl]oxy-1,12-dihydroxy-10,14,17,17-tetramethyl-11-oxo-9-(3,4,5-trihydroxyoxan-2-yl)oxy-6-oxatetracyclo[11.3.1.03,10.04,7]heptadec-13-en-2-yl] benzoate

> <PUBCHEM_IUPAC_SYSTEMATIC_NAME>
[(1S,2S,4S,7R,9S,10S,12R,15S)-4-acetyloxy-15-[(2R,3S)-3-benzamido-2-oxidanyl-3-phenyl-propanoyl]oxy-10,14,17,17-tetramethyl-1,12-bis(oxidanyl)-11-oxidanylidene-9-[3,4,5-tris(oxidanyl)oxan-2-yl]oxy-6-oxatetracyclo[11.3.1.03,10.04,7]heptadec-13-en-2-yl] benzoate

> <PUBCHEM_IUPAC_TRADITIONAL_NAME>
benzoic acid [(1S,2S,4S,7R,9S,10S,12R,15S)-4-acetoxy-15-[(2R,3S)-3-benzamido-2-hydroxy-3-phenyl-propanoyl]oxy-1,12-dihydroxy-11-keto-10,14,17,17-tetramethyl-9-(3,4,5-trihydroxytetrahydropyran-2-yl)oxy-6-oxatetracyclo[11.3.1.03,10.04,7]heptadec-13-en-2-yl] ester

> <PUBCHEM_IUPAC_INCHI>
InChI=1S/C50H57NO17/c1-25-31(65-45(61)38(56)35(27-15-9-6-10-16-27)51-43(59)28-17-11-7-12-18-28)22-50(62)42(67-44(60)29-19-13-8-14-20-29)40-48(5,41(58)37(55)34(25)47(50,3)4)32(21-33-49(40,24-64-33)68-26(2)52)66-46-39(57)36(54)30(53)23-63-46/h6-20,30-33,35-40,42,46,53-57,62H,21-24H2,1-5H3,(H,51,59)/t30?,31-,32-,33+,35-,36?,37+,38+,39?,40?,42-,46?,48+,49-,50+/m0/s1

> <PUBCHEM_IUPAC_INCHIKEY>
ORKLEZFXASNLFJ-CNSXQYHSSA-N

> <PUBCHEM_XLOGP3>
0.4

> <PUBCHEM_EXACT_MASS>
943.362649

> <PUBCHEM_MOLECULAR_FORMULA>
C50H57NO17

> <PUBCHEM_MOLECULAR_WEIGHT>
944

> <PUBCHEM_OPENEYE_CAN_SMILES>
CC1=C2C(C(=O)C3(C(CC4C(C3C(C(C2(C)C)(CC1OC(=O)C(C(C5=CC=CC=C5)NC(=O)C6=CC=CC=C6)O)O)OC(=O)C7=CC=CC=C7)(CO4)OC(=O)C)OC8C(C(C(CO8)O)O)O)C)O

> <PUBCHEM_OPENEYE_ISO_SMILES>
CC1=C2[C@H](C(=O)[C@@]3([C@H](C[C@@H]4[C@](C3[C@@H]([C@@](C2(C)C)(C[C@@H]1OC(=O)[C@@H]([C@H](C5=CC=CC=C5)NC(=O)C6=CC=CC=C6)O)O)OC(=O)C7=CC=CC=C7)(CO4)OC(=O)C)OC8C(C(C(CO8)O)O)O)C)O

> <PUBCHEM_CACTVS_TPSA>
274

> <PUBCHEM_MONOISOTOPIC_WEIGHT>
943.362649

> <PUBCHEM_TOTAL_CHARGE>
0

> <PUBCHEM_HEAVY_ATOM_COUNT>
68

> <PUBCHEM_ATOM_DEF_STEREO_COUNT>
10

> <PUBCHEM_ATOM_UDEF_STEREO_COUNT>
5

> <PUBCHEM_BOND_DEF_STEREO_COUNT>
0

> <PUBCHEM_BOND_UDEF_STEREO_COUNT>
0

> <PUBCHEM_ISOTOPIC_ATOM_COUNT>
0

> <PUBCHEM_COMPONENT_COUNT>
1

> <PUBCHEM_CACTVS_TAUTO_COUNT>
-1

> <PUBCHEM_COORDINATE_TYPE>
1
5
255

> <PUBCHEM_BONDANNOTATIONS>
42  11  3
44  13  3
47  14  3
49  16  5
52  18  5
19  23  3
20  2  5
21  32  6
22  70  5
25  4  6
38  4  3
46  50  8
46  51  8
24  5  6
50  53  8
51  54  8
53  55  8
54  55  8
56  57  8
56  58  8
57  60  8
58  61  8
60  63  8
61  63  8
62  64  8
62  65  8
64  66  8
65  67  8
66  68  8
67  68  8
33  7  6
34  8  5

$$$$
