16083123
  -OEChem-09052010302D

155164  0     1  0  0  0  0  0999 V2000
   12.6203    5.5403    0.0000 O   0  0  0  0  0  0  0  0  0  0  0  0
   10.4377    4.3582    0.0000 O   0  0  0  0  0  0  0  0  0  0  0  0
   10.8478    6.4351    0.0000 O   0  0  0  0  0  0  0  0  0  0  0  0
   11.1972   -2.7038    0.0000 O   0  0  0  0  0  0  0  0  0  0  0  0
    9.4651   -2.7038    0.0000 O   0  0  0  0  0  0  0  0  0  0  0  0
   11.1972   -4.7038    0.0000 O   0  0  0  0  0  0  0  0  0  0  0  0
    9.4651   -5.7038    0.0000 O   0  0  0  0  0  0  0  0  0  0  0  0
    7.7331   -4.7038    0.0000 O   0  0  0  0  0  0  0  0  0  0  0  0
   12.0632   -3.2038    0.0000 O   0  0  0  0  0  0  0  0  0  0  0  0
    7.7331   -1.7038    0.0000 O   0  0  0  0  0  0  0  0  0  0  0  0
    6.8671   -3.2038    0.0000 O   0  0  0  0  0  0  0  0  0  0  0  0
   12.9292   -5.7038    0.0000 O   0  0  0  0  0  0  0  0  0  0  0  0
    6.0010   -5.7038    0.0000 O   0  0  0  0  0  0  0  0  0  0  0  0
   14.6613   -4.7038    0.0000 O   0  0  0  0  0  0  0  0  0  0  0  0
   14.6613   -2.7038    0.0000 O   0  0  0  0  0  0  0  0  0  0  0  0
    4.2690   -4.7038    0.0000 O   0  0  0  0  0  0  0  0  0  0  0  0
    4.2690   -2.7038    0.0000 O   0  0  0  0  0  0  0  0  0  0  0  0
    4.2690   -5.7038    0.0000 O   0  0  0  0  0  0  0  0  0  0  0  0
    6.0010   -7.7038    0.0000 O   0  0  0  0  0  0  0  0  0  0  0  0
    4.2690   -8.7038    0.0000 O   0  0  0  0  0  0  0  0  0  0  0  0
    2.5369   -7.7038    0.0000 O   0  0  0  0  0  0  0  0  0  0  0  0
    2.5369   -4.7038    0.0000 O   0  0  0  0  0  0  0  0  0  0  0  0
   11.2264    3.4931    0.0000 C   0  0  1  0  0  0  0  0  0  0  0  0
   12.0944    2.9965    0.0000 C   0  0  2  0  0  0  0  0  0  0  0  0
   11.4319    4.4657    0.0000 C   0  0  1  0  0  0  0  0  0  0  0  0
   12.0983    1.9965    0.0000 C   0  0  1  0  0  0  0  0  0  0  0  0
   12.4202    4.5726    0.0000 C   0  0  2  0  0  0  0  0  0  0  0  0
   12.8288    3.6664    0.0000 C   0  0  0  0  0  0  0  0  0  0  0  0
   11.2342    1.4931    0.0000 C   0  0  2  0  0  0  0  0  0  0  0  0
   10.3624    2.9898    0.0000 C   0  0  0  0  0  0  0  0  0  0  0  0
   11.0296    5.3683    0.0000 C   0  0  1  0  0  0  0  0  0  0  0  0
   10.3662    1.9898    0.0000 C   0  0  0  0  0  0  0  0  0  0  0  0
   11.2221    0.4516    0.0000 C   0  0  2  0  0  0  0  0  0  0  0  0
   11.7626    6.0311    0.0000 C   0  0  1  0  0  0  0  0  0  0  0  0
   10.2410    3.6630    0.0000 C   0  0  0  0  0  0  0  0  0  0  0  0
   13.0102    1.4931    0.0000 C   0  0  0  0  0  0  0  0  0  0  0  0
   12.1222   -0.0727    0.0000 C   0  0  0  0  0  0  0  0  0  0  0  0
   10.2722   -0.0727    0.0000 C   0  0  0  0  0  0  0  0  0  0  0  0
   10.0512    5.5750    0.0000 C   0  0  0  0  0  0  0  0  0  0  0  0
   12.5698    6.6213    0.0000 C   0  0  0  0  0  0  0  0  0  0  0  0
   13.0222    0.4516    0.0000 C   0  0  0  0  0  0  0  0  0  0  0  0
   10.3580    0.9549    0.0000 C   0  0  0  0  0  0  0  0  0  0  0  0
   12.1347   -1.1576    0.0000 C   0  0  0  0  0  0  0  0  0  0  0  0
   10.2597   -1.1576    0.0000 C   0  0  0  0  0  0  0  0  0  0  0  0
   12.4623    7.6155    0.0000 C   0  0  0  0  0  0  0  0  0  0  0  0
   11.1972   -1.7038    0.0000 C   0  0  2  0  0  0  0  0  0  0  0  0
   10.7403    7.4293    0.0000 C   0  0  0  0  0  0  0  0  0  0  0  0
   11.5476    8.0195    0.0000 C   0  0  2  0  0  0  0  0  0  0  0  0
   11.4401    9.0138    0.0000 C   0  0  0  0  0  0  0  0  0  0  0  0
   10.3312   -3.2038    0.0000 C   0  0  2  0  0  0  0  0  0  0  0  0
   10.3312   -4.2038    0.0000 C   0  0  1  0  0  0  0  0  0  0  0  0
    9.4651   -4.7038    0.0000 C   0  0  2  0  0  0  0  0  0  0  0  0
    8.5991   -3.2038    0.0000 C   0  0  1  0  0  0  0  0  0  0  0  0
    8.5991   -4.2038    0.0000 C   0  0  1  0  0  0  0  0  0  0  0  0
    7.7331   -2.7038    0.0000 C   0  0  0  0  0  0  0  0  0  0  0  0
   12.0632   -4.2038    0.0000 C   0  0  2  0  0  0  0  0  0  0  0  0
   12.9292   -4.7038    0.0000 C   0  0  1  0  0  0  0  0  0  0  0  0
    6.8671   -4.2038    0.0000 C   0  0  2  0  0  0  0  0  0  0  0  0
   13.7953   -4.2038    0.0000 C   0  0  1  0  0  0  0  0  0  0  0  0
    6.0010   -4.7038    0.0000 C   0  0  1  0  0  0  0  0  0  0  0  0
   12.9292   -2.7038    0.0000 C   0  0  2  0  0  0  0  0  0  0  0  0
   13.7953   -3.2038    0.0000 C   0  0  2  0  0  0  0  0  0  0  0  0
    5.1350   -4.2038    0.0000 C   0  0  1  0  0  0  0  0  0  0  0  0
    6.0010   -2.7038    0.0000 C   0  0  2  0  0  0  0  0  0  0  0  0
    5.1350   -3.2038    0.0000 C   0  0  2  0  0  0  0  0  0  0  0  0
   12.9292   -1.7038    0.0000 C   0  0  0  0  0  0  0  0  0  0  0  0
    6.0010   -1.7038    0.0000 C   0  0  0  0  0  0  0  0  0  0  0  0
    5.1350   -6.2038    0.0000 C   0  0  2  0  0  0  0  0  0  0  0  0
    5.1350   -7.2038    0.0000 C   0  0  1  0  0  0  0  0  0  0  0  0
    4.2690   -7.7038    0.0000 C   0  0  2  0  0  0  0  0  0  0  0  0
    3.4030   -6.2038    0.0000 C   0  0  1  0  0  0  0  0  0  0  0  0
    3.4030   -7.2038    0.0000 C   0  0  1  0  0  0  0  0  0  0  0  0
    2.5369   -5.7038    0.0000 C   0  0  0  0  0  0  0  0  0  0  0  0
   12.8727    2.6548    0.0000 H   0  0  0  0  0  0  0  0  0  0  0  0
   12.8294    2.4300    0.0000 H   0  0  0  0  0  0  0  0  0  0  0  0
   13.2651    4.6658    0.0000 H   0  0  0  0  0  0  0  0  0  0  0  0
   13.1962    3.1670    0.0000 H   0  0  0  0  0  0  0  0  0  0  0  0
   13.3641    3.9792    0.0000 H   0  0  0  0  0  0  0  0  0  0  0  0
   11.9686    1.0653    0.0000 H   0  0  0  0  0  0  0  0  0  0  0  0
   10.1481    3.5716    0.0000 H   0  0  0  0  0  0  0  0  0  0  0  0
    9.7522    2.8798    0.0000 H   0  0  0  0  0  0  0  0  0  0  0  0
   10.6398    4.8862    0.0000 H   0  0  0  0  0  0  0  0  0  0  0  0
    9.7552    2.0951    0.0000 H   0  0  0  0  0  0  0  0  0  0  0  0
   10.1564    1.4064    0.0000 H   0  0  0  0  0  0  0  0  0  0  0  0
   10.3463    4.2740    0.0000 H   0  0  0  0  0  0  0  0  0  0  0  0
    9.6300    3.7683    0.0000 H   0  0  0  0  0  0  0  0  0  0  0  0
   10.1357    3.0520    0.0000 H   0  0  0  0  0  0  0  0  0  0  0  0
   13.6222    1.3941    0.0000 H   0  0  0  0  0  0  0  0  0  0  0  0
   13.2125    2.0792    0.0000 H   0  0  0  0  0  0  0  0  0  0  0  0
   10.0718    4.8587    0.0000 H   0  0  0  0  0  0  0  0  0  0  0  0
   10.0699    0.5134    0.0000 H   0  0  0  0  0  0  0  0  0  0  0  0
    9.6602   -0.1717    0.0000 H   0  0  0  0  0  0  0  0  0  0  0  0
   10.1793    6.1816    0.0000 H   0  0  0  0  0  0  0  0  0  0  0  0
    9.4446    5.7032    0.0000 H   0  0  0  0  0  0  0  0  0  0  0  0
    9.9231    4.9684    0.0000 H   0  0  0  0  0  0  0  0  0  0  0  0
   12.8433    6.0649    0.0000 H   0  0  0  0  0  0  0  0  0  0  0  0
   13.1653    6.7940    0.0000 H   0  0  0  0  0  0  0  0  0  0  0  0
   13.5616    0.1457    0.0000 H   0  0  0  0  0  0  0  0  0  0  0  0
   10.6701    1.4906    0.0000 H   0  0  0  0  0  0  0  0  0  0  0  0
    9.8223    1.2670    0.0000 H   0  0  0  0  0  0  0  0  0  0  0  0
   10.0460    0.4192    0.0000 H   0  0  0  0  0  0  0  0  0  0  0  0
   12.3505   -1.7389    0.0000 H   0  0  0  0  0  0  0  0  0  0  0  0
   12.7443   -1.0445    0.0000 H   0  0  0  0  0  0  0  0  0  0  0  0
    9.6501   -1.0445    0.0000 H   0  0  0  0  0  0  0  0  0  0  0  0
   10.0439   -1.7389    0.0000 H   0  0  0  0  0  0  0  0  0  0  0  0
   13.0810    7.5741    0.0000 H   0  0  0  0  0  0  0  0  0  0  0  0
   12.6105    8.2176    0.0000 H   0  0  0  0  0  0  0  0  0  0  0  0
   11.7347   -2.0127    0.0000 H   0  0  0  0  0  0  0  0  0  0  0  0
   10.4669    7.9858    0.0000 H   0  0  0  0  0  0  0  0  0  0  0  0
   10.1449    7.2567    0.0000 H   0  0  0  0  0  0  0  0  0  0  0  0
   12.0481    8.3855    0.0000 H   0  0  0  0  0  0  0  0  0  0  0  0
   12.0565    9.0804    0.0000 H   0  0  0  0  0  0  0  0  0  0  0  0
   11.3734    9.6302    0.0000 H   0  0  0  0  0  0  0  0  0  0  0  0
   10.8237    8.9471    0.0000 H   0  0  0  0  0  0  0  0  0  0  0  0
   10.3312   -2.5838    0.0000 H   0  0  0  0  0  0  0  0  0  0  0  0
   10.3312   -4.8238    0.0000 H   0  0  0  0  0  0  0  0  0  0  0  0
    8.9282   -5.0138    0.0000 H   0  0  0  0  0  0  0  0  0  0  0  0
    8.5991   -2.5838    0.0000 H   0  0  0  0  0  0  0  0  0  0  0  0
    8.5991   -4.8238    0.0000 H   0  0  0  0  0  0  0  0  0  0  0  0
    7.1225   -2.5961    0.0000 H   0  0  0  0  0  0  0  0  0  0  0  0
    7.5210   -3.2864    0.0000 H   0  0  0  0  0  0  0  0  0  0  0  0
   11.5263   -3.8938    0.0000 H   0  0  0  0  0  0  0  0  0  0  0  0
    8.9282   -6.0138    0.0000 H   0  0  0  0  0  0  0  0  0  0  0  0
   12.3923   -5.0138    0.0000 H   0  0  0  0  0  0  0  0  0  0  0  0
    6.8671   -4.8238    0.0000 H   0  0  0  0  0  0  0  0  0  0  0  0
    7.1962   -1.3938    0.0000 H   0  0  0  0  0  0  0  0  0  0  0  0
   13.7953   -4.8238    0.0000 H   0  0  0  0  0  0  0  0  0  0  0  0
    5.4641   -5.0138    0.0000 H   0  0  0  0  0  0  0  0  0  0  0  0
   12.3923   -2.3938    0.0000 H   0  0  0  0  0  0  0  0  0  0  0  0
   14.3322   -3.5138    0.0000 H   0  0  0  0  0  0  0  0  0  0  0  0
    4.5981   -3.8938    0.0000 H   0  0  0  0  0  0  0  0  0  0  0  0
   13.4662   -6.0138    0.0000 H   0  0  0  0  0  0  0  0  0  0  0  0
    6.5380   -2.3938    0.0000 H   0  0  0  0  0  0  0  0  0  0  0  0
    4.5981   -3.5138    0.0000 H   0  0  0  0  0  0  0  0  0  0  0  0
   13.5492   -1.7038    0.0000 H   0  0  0  0  0  0  0  0  0  0  0  0
   12.9292   -1.0838    0.0000 H   0  0  0  0  0  0  0  0  0  0  0  0
   12.3092   -1.7038    0.0000 H   0  0  0  0  0  0  0  0  0  0  0  0
   15.1982   -4.3938    0.0000 H   0  0  0  0  0  0  0  0  0  0  0  0
   15.1982   -3.0138    0.0000 H   0  0  0  0  0  0  0  0  0  0  0  0
    6.6210   -1.7038    0.0000 H   0  0  0  0  0  0  0  0  0  0  0  0
    6.0010   -1.0838    0.0000 H   0  0  0  0  0  0  0  0  0  0  0  0
    5.3810   -1.7038    0.0000 H   0  0  0  0  0  0  0  0  0  0  0  0
    5.1350   -5.5838    0.0000 H   0  0  0  0  0  0  0  0  0  0  0  0
    3.7320   -4.3938    0.0000 H   0  0  0  0  0  0  0  0  0  0  0  0
    4.2690   -2.0838    0.0000 H   0  0  0  0  0  0  0  0  0  0  0  0
    5.1350   -7.8238    0.0000 H   0  0  0  0  0  0  0  0  0  0  0  0
    3.7320   -8.0138    0.0000 H   0  0  0  0  0  0  0  0  0  0  0  0
    3.4030   -5.5838    0.0000 H   0  0  0  0  0  0  0  0  0  0  0  0
    3.4030   -7.8238    0.0000 H   0  0  0  0  0  0  0  0  0  0  0  0
    6.0010   -8.3238    0.0000 H   0  0  0  0  0  0  0  0  0  0  0  0
    1.9264   -5.5961    0.0000 H   0  0  0  0  0  0  0  0  0  0  0  0
    2.3249   -6.2864    0.0000 H   0  0  0  0  0  0  0  0  0  0  0  0
    3.7320   -9.0138    0.0000 H   0  0  0  0  0  0  0  0  0  0  0  0
    2.0000   -7.3938    0.0000 H   0  0  0  0  0  0  0  0  0  0  0  0
    2.0000   -4.3938    0.0000 H   0  0  0  0  0  0  0  0  0  0  0  0
  1 27  1  0  0  0  0
 34  1  1  6  0  0  0
 25  2  1  6  0  0  0
  2 90  1  0  0  0  0
  3 34  1  0  0  0  0
  3 47  1  0  0  0  0
 46  4  1  1  0  0  0
 50  4  1  1  0  0  0
  5 50  1  0  0  0  0
  5 53  1  0  0  0  0
 51  6  1  6  0  0  0
 56  6  1  6  0  0  0
 52  7  1  1  0  0  0
  7123  1  0  0  0  0
 54  8  1  6  0  0  0
 58  8  1  1  0  0  0
  9 56  1  0  0  0  0
  9 61  1  0  0  0  0
 10 55  1  0  0  0  0
 10126  1  0  0  0  0
 11 58  1  0  0  0  0
 11 64  1  0  0  0  0
 57 12  1  1  0  0  0
 12132  1  0  0  0  0
 60 13  1  6  0  0  0
 68 13  1  1  0  0  0
 59 14  1  1  0  0  0
 14138  1  0  0  0  0
 62 15  1  6  0  0  0
 15139  1  0  0  0  0
 63 16  1  6  0  0  0
 16144  1  0  0  0  0
 65 17  1  1  0  0  0
 17145  1  0  0  0  0
 18 68  1  0  0  0  0
 18 71  1  0  0  0  0
 69 19  1  6  0  0  0
 19150  1  0  0  0  0
 70 20  1  1  0  0  0
 20153  1  0  0  0  0
 72 21  1  6  0  0  0
 21154  1  0  0  0  0
 22 73  1  0  0  0  0
 22155  1  0  0  0  0
 23 24  1  0  0  0  0
 23 25  1  0  0  0  0
 23 30  1  0  0  0  0
 23 35  1  1  0  0  0
 24 26  1  0  0  0  0
 24 28  1  0  0  0  0
 24 74  1  6  0  0  0
 25 27  1  0  0  0  0
 25 31  1  0  0  0  0
 26 29  1  0  0  0  0
 26 36  1  0  0  0  0
 26 75  1  1  0  0  0
 27 28  1  0  0  0  0
 27 76  1  6  0  0  0
 28 77  1  0  0  0  0
 28 78  1  0  0  0  0
 29 32  1  0  0  0  0
 29 33  1  0  0  0  0
 29 79  1  6  0  0  0
 30 32  1  0  0  0  0
 30 80  1  0  0  0  0
 30 81  1  0  0  0  0
 31 34  1  0  0  0  0
 31 39  1  6  0  0  0
 31 82  1  0  0  0  0
 32 83  1  0  0  0  0
 32 84  1  0  0  0  0
 33 37  1  0  0  0  0
 33 38  1  0  0  0  0
 33 42  1  1  0  0  0
 34 40  1  0  0  0  0
 35 85  1  0  0  0  0
 35 86  1  0  0  0  0
 35 87  1  0  0  0  0
 36 41  1  0  0  0  0
 36 88  1  0  0  0  0
 36 89  1  0  0  0  0
 37 41  2  0  0  0  0
 37 43  1  0  0  0  0
 38 44  1  0  0  0  0
 38 91  1  0  0  0  0
 38 92  1  0  0  0  0
 39 93  1  0  0  0  0
 39 94  1  0  0  0  0
 39 95  1  0  0  0  0
 40 45  1  0  0  0  0
 40 96  1  0  0  0  0
 40 97  1  0  0  0  0
 41 98  1  0  0  0  0
 42 99  1  0  0  0  0
 42100  1  0  0  0  0
 42101  1  0  0  0  0
 43 46  1  0  0  0  0
 43102  1  0  0  0  0
 43103  1  0  0  0  0
 44 46  1  0  0  0  0
 44104  1  0  0  0  0
 44105  1  0  0  0  0
 45 48  1  0  0  0  0
 45106  1  0  0  0  0
 45107  1  0  0  0  0
 46108  1  0  0  0  0
 47 48  1  0  0  0  0
 47109  1  0  0  0  0
 47110  1  0  0  0  0
 48 49  1  6  0  0  0
 48111  1  0  0  0  0
 49112  1  0  0  0  0
 49113  1  0  0  0  0
 49114  1  0  0  0  0
 50 51  1  0  0  0  0
 50115  1  0  0  0  0
 51 52  1  0  0  0  0
 51116  1  0  0  0  0
 52 54  1  0  0  0  0
 52117  1  0  0  0  0
 53 54  1  0  0  0  0
 53 55  1  1  0  0  0
 53118  1  0  0  0  0
 54119  1  0  0  0  0
 55120  1  0  0  0  0
 55121  1  0  0  0  0
 56 57  1  0  0  0  0
 56122  1  0  0  0  0
 57 59  1  0  0  0  0
 57124  1  0  0  0  0
 58 60  1  0  0  0  0
 58125  1  0  0  0  0
 59 62  1  0  0  0  0
 59127  1  0  0  0  0
 60 63  1  0  0  0  0
 60128  1  0  0  0  0
 61 62  1  0  0  0  0
 61 66  1  1  0  0  0
 61129  1  0  0  0  0
 62130  1  0  0  0  0
 63 65  1  0  0  0  0
 63131  1  0  0  0  0
 64 65  1  0  0  0  0
 64 67  1  6  0  0  0
 64133  1  0  0  0  0
 65134  1  0  0  0  0
 66135  1  0  0  0  0
 66136  1  0  0  0  0
 66137  1  0  0  0  0
 67140  1  0  0  0  0
 67141  1  0  0  0  0
 67142  1  0  0  0  0
 68 69  1  0  0  0  0
 68143  1  0  0  0  0
 69 70  1  0  0  0  0
 69146  1  0  0  0  0
 70 72  1  0  0  0  0
 70147  1  0  0  0  0
 71 72  1  0  0  0  0
 71 73  1  1  0  0  0
 71148  1  0  0  0  0
 72149  1  0  0  0  0
 73151  1  0  0  0  0
 73152  1  0  0  0  0
M  END
> <PUBCHEM_COMPOUND_CID>
16083123

> <PUBCHEM_COMPOUND_CANONICALIZED>
1

> <PUBCHEM_CACTVS_COMPLEXITY>
1970

> <PUBCHEM_CACTVS_HBOND_ACCEPTOR>
22

> <PUBCHEM_CACTVS_HBOND_DONOR>
12

> <PUBCHEM_CACTVS_ROTATABLE_BOND>
10

> <PUBCHEM_CACTVS_SUBSKEYS>
AAADcfB8PgAAAAAAAAAAAAAAAAAAAaIAAAA0aJEiQAASAGCAAAAAGgAACAAAD1SwgAMCCAAABgCAAiBCAAAAAAAgAAAACAAAAAgREAIAAQAiQAAFwAAPAAPA4PwPgAAAAAAAAADAAAQAACAAAYAADCAAAA==

> <PUBCHEM_IUPAC_OPENEYE_NAME>
(2S,3R,4R,5R,6S)-2-[(2R,3R,4S,5S,6R)-5-[(2S,3R,4R,5R,6S)-4,5-dihydroxy-6-methyl-3-[(2S,3R,4S,5S,6R)-3,4,5-trihydroxy-6-(hydroxymethyl)tetrahydropyran-2-yl]oxy-tetrahydropyran-2-yl]oxy-4-hydroxy-6-(hydroxymethyl)-2-[(1R,2S,4S,5'R,6R,7S,8S,9S,12S,13R,16S)-8-hydroxy-5',7,9,13-tetramethyl-spiro[5-oxapentacyclo[10.8.0.02,9.04,8.013,18]icos-18-ene-6,2'-tetrahydropyran]-16-yl]oxy-tetrahydropyran-3-yl]oxy-6-methyl-tetrahydropyran-3,4,5-triol

> <PUBCHEM_IUPAC_CAS_NAME>
(2S,3R,4R,5R,6S)-2-[[(2R,3R,4S,5S,6R)-5-[[(2S,3R,4R,5R,6S)-4,5-dihydroxy-6-methyl-3-[[(2S,3R,4S,5S,6R)-3,4,5-trihydroxy-6-(hydroxymethyl)-2-oxanyl]oxy]-2-oxanyl]oxy]-4-hydroxy-6-(hydroxymethyl)-2-[[(1R,2S,4S,5'R,6R,7S,8S,9S,12S,13R,16S)-8-hydroxy-5',7,9,13-tetramethyl-16-spiro[5-oxapentacyclo[10.8.0.02,9.04,8.013,18]eicos-18-ene-6,2'-oxane]yl]oxy]-3-oxanyl]oxy]-6-methyloxane-3,4,5-triol

> <PUBCHEM_IUPAC_NAME_MARKUP>
(2<I>S</I>,3<I>R</I>,4<I>R</I>,5<I>R</I>,6<I>S</I>)-2-[(2<I>R</I>,3<I>R</I>,4<I>S</I>,5<I>S</I>,6<I>R</I>)-5-[(2<I>S</I>,3<I>R</I>,4<I>R</I>,5<I>R</I>,6<I>S</I>)-4,5-dihydroxy-6-methyl-3-[(2<I>S</I>,3<I>R</I>,4<I>S</I>,5<I>S</I>,6<I>R</I>)-3,4,5-trihydroxy-6-(hydroxymethyl)oxan-2-yl]oxyoxan-2-yl]oxy-4-hydroxy-6-(hydroxymethyl)-2-[(1<I>R</I>,2<I>S</I>,4<I>S</I>,5&apos;<I>R</I>,6<I>R</I>,7<I>S</I>,8<I>S</I>,9<I>S</I>,12<I>S</I>,13<I>R</I>,16<I>S</I>)-8-hydroxy-5&apos;,7,9,13-tetramethylspiro[5-oxapentacyclo[10.8.0.0<SUP>2,9</SUP>.0<SUP>4,8</SUP>.0<SUP>13,18</SUP>]icos-18-ene-6,2&apos;-oxane]-16-yl]oxyoxan-3-yl]oxy-6-methyloxane-3,4,5-triol

> <PUBCHEM_IUPAC_NAME>
(2S,3R,4R,5R,6S)-2-[(2R,3R,4S,5S,6R)-5-[(2S,3R,4R,5R,6S)-4,5-dihydroxy-6-methyl-3-[(2S,3R,4S,5S,6R)-3,4,5-trihydroxy-6-(hydroxymethyl)oxan-2-yl]oxyoxan-2-yl]oxy-4-hydroxy-6-(hydroxymethyl)-2-[(1R,2S,4S,5'R,6R,7S,8S,9S,12S,13R,16S)-8-hydroxy-5',7,9,13-tetramethylspiro[5-oxapentacyclo[10.8.0.02,9.04,8.013,18]icos-18-ene-6,2'-oxane]-16-yl]oxyoxan-3-yl]oxy-6-methyloxane-3,4,5-triol

> <PUBCHEM_IUPAC_SYSTEMATIC_NAME>
(2S,3R,4R,5R,6S)-2-[(2R,3R,4S,5S,6R)-6-(hydroxymethyl)-5-[(2S,3R,4R,5R,6S)-3-[(2S,3R,4S,5S,6R)-6-(hydroxymethyl)-3,4,5-tris(oxidanyl)oxan-2-yl]oxy-6-methyl-4,5-bis(oxidanyl)oxan-2-yl]oxy-4-oxidanyl-2-[(1R,2S,4S,5'R,6R,7S,8S,9S,12S,13R,16S)-5',7,9,13-tetramethyl-8-oxidanyl-spiro[5-oxapentacyclo[10.8.0.02,9.04,8.013,18]icos-18-ene-6,2'-oxane]-16-yl]oxy-oxan-3-yl]oxy-6-methyl-oxane-3,4,5-triol

> <PUBCHEM_IUPAC_TRADITIONAL_NAME>
(2S,3R,4R,5R,6S)-2-[(2R,3R,4S,5S,6R)-5-[(2S,3R,4R,5R,6S)-4,5-dihydroxy-6-methyl-3-[(2S,3R,4S,5S,6R)-3,4,5-trihydroxy-6-methylol-tetrahydropyran-2-yl]oxy-tetrahydropyran-2-yl]oxy-4-hydroxy-2-[(1R,2S,4S,5'R,6R,7S,8S,9S,12S,13R,16S)-8-hydroxy-5',7,9,13-tetramethyl-spiro[5-oxapentacyclo[10.8.0.02,9.04,8.013,18]eicos-18-ene-6,2'-tetrahydropyran]-16-yl]oxy-6-methylol-tetrahydropyran-3-yl]oxy-6-methyl-tetrahydropyran-3,4,5-triol

> <PUBCHEM_IUPAC_INCHI>
InChI=1S/C51H82O22/c1-20-9-14-50(64-19-20)23(4)51(63)31(73-50)16-28-26-8-7-24-15-25(10-12-48(24,5)27(26)11-13-49(28,51)6)67-47-43(72-44-38(60)35(57)32(54)21(2)65-44)40(62)41(30(18-53)69-47)70-46-42(37(59)33(55)22(3)66-46)71-45-39(61)36(58)34(56)29(17-52)68-45/h7,20-23,25-47,52-63H,8-19H2,1-6H3/t20-,21+,22+,23-,25+,26-,27+,28+,29-,30-,31+,32+,33+,34-,35-,36+,37-,38-,39-,40+,41-,42-,43-,44+,45+,46+,47-,48+,49+,50-,51-/m1/s1

> <PUBCHEM_IUPAC_INCHIKEY>
DYHUTWXSTAKMRJ-WFWBPIRHSA-N

> <PUBCHEM_XLOGP3_AA>
-1.5

> <PUBCHEM_EXACT_MASS>
1046.529774

> <PUBCHEM_MOLECULAR_FORMULA>
C51H82O22

> <PUBCHEM_MOLECULAR_WEIGHT>
1047.2

> <PUBCHEM_OPENEYE_CAN_SMILES>
CC1CCC2(C(C3(C(O2)CC4C3(CCC5C4CC=C6C5(CCC(C6)OC7C(C(C(C(O7)CO)OC8C(C(C(C(O8)C)O)O)OC9C(C(C(C(O9)CO)O)O)O)O)OC2C(C(C(C(O2)C)O)O)O)C)C)O)C)OC1

> <PUBCHEM_OPENEYE_ISO_SMILES>
C[C@@H]1CC[C@@]2([C@H]([C@]3([C@@H](O2)C[C@@H]4[C@@]3(CC[C@H]5[C@H]4CC=C6[C@@]5(CC[C@@H](C6)O[C@H]7[C@@H]([C@H]([C@@H]([C@H](O7)CO)O[C@H]8[C@@H]([C@@H]([C@H]([C@@H](O8)C)O)O)O[C@H]9[C@@H]([C@H]([C@@H]([C@H](O9)CO)O)O)O)O)O[C@H]2[C@@H]([C@@H]([C@H]([C@@H](O2)C)O)O)O)C)C)O)C)OC1

> <PUBCHEM_CACTVS_TPSA>
335

> <PUBCHEM_MONOISOTOPIC_WEIGHT>
1046.529774

> <PUBCHEM_TOTAL_CHARGE>
0

> <PUBCHEM_HEAVY_ATOM_COUNT>
73

> <PUBCHEM_ATOM_DEF_STEREO_COUNT>
31

> <PUBCHEM_ATOM_UDEF_STEREO_COUNT>
0

> <PUBCHEM_BOND_DEF_STEREO_COUNT>
0

> <PUBCHEM_BOND_UDEF_STEREO_COUNT>
0

> <PUBCHEM_ISOTOPIC_ATOM_COUNT>
0

> <PUBCHEM_COMPONENT_COUNT>
1

> <PUBCHEM_CACTVS_TAUTO_COUNT>
-1

> <PUBCHEM_COORDINATE_TYPE>
1
5
255

> <PUBCHEM_BONDANNOTATIONS>
34  1  6
57  12  5
60  13  6
68  13  5
59  14  5
62  15  6
63  16  6
65  17  5
69  19  6
25  2  6
70  20  5
72  21  6
23  35  5
24  74  6
26  75  5
27  76  6
29  79  6
31  39  6
33  42  5
46  4  5
50  4  5
48  49  6
53  55  5
51  6  6
56  6  6
61  66  5
64  67  6
52  7  5
71  73  5
54  8  6
58  8  5

$$$$
