16083122
  -OEChem-09052010292D

176186  0     1  0  0  0  0  0999 V2000
    5.5982    5.3959    0.0000 O   0  0  0  0  0  0  0  0  0  0  0  0
    3.9370    4.3083    0.0000 O   0  0  0  0  0  0  0  0  0  0  0  0
    5.4440    6.4829    0.0000 O   0  0  0  0  0  0  0  0  0  0  0  0
   12.0262    0.0414    0.0000 O   0  0  0  0  0  0  0  0  0  0  0  0
    4.4218    7.8811    0.0000 O   0  0  0  0  0  0  0  0  0  0  0  0
   11.1602   -1.4586    0.0000 O   0  0  0  0  0  0  0  0  0  0  0  0
    7.0585    7.6633    0.0000 O   0  0  0  0  0  0  0  0  0  0  0  0
   13.7583   -0.9586    0.0000 O   0  0  0  0  0  0  0  0  0  0  0  0
    6.8435    9.6517    0.0000 O   0  0  0  0  0  0  0  0  0  0  0  0
   13.7583   -2.9586    0.0000 O   0  0  0  0  0  0  0  0  0  0  0  0
   12.0262   -3.9586    0.0000 O   0  0  0  0  0  0  0  0  0  0  0  0
    5.0140   10.4597    0.0000 O   0  0  0  0  0  0  0  0  0  0  0  0
    3.2920   10.2735    0.0000 O   0  0  0  0  0  0  0  0  0  0  0  0
    9.4281   -2.4586    0.0000 O   0  0  0  0  0  0  0  0  0  0  0  0
   10.2942   -3.9586    0.0000 O   0  0  0  0  0  0  0  0  0  0  0  0
   12.0262   -5.9586    0.0000 O   0  0  0  0  0  0  0  0  0  0  0  0
   10.2942   -6.9586    0.0000 O   0  0  0  0  0  0  0  0  0  0  0  0
    8.5621   -5.9586    0.0000 O   0  0  0  0  0  0  0  0  0  0  0  0
   12.0262   -7.6906    0.0000 O   0  0  0  0  0  0  0  0  0  0  0  0
    8.5621   -2.9586    0.0000 O   0  0  0  0  0  0  0  0  0  0  0  0
    8.5621   -6.9586    0.0000 O   0  0  0  0  0  0  0  0  0  0  0  0
   14.0262   -5.9586    0.0000 O   0  0  0  0  0  0  0  0  0  0  0  0
   15.0262   -7.6906    0.0000 O   0  0  0  0  0  0  0  0  0  0  0  0
   10.2942   -8.9586    0.0000 O   0  0  0  0  0  0  0  0  0  0  0  0
   14.0263   -9.4226    0.0000 O   0  0  0  0  0  0  0  0  0  0  0  0
    8.5621   -9.9586    0.0000 O   0  0  0  0  0  0  0  0  0  0  0  0
    6.8300   -8.9586    0.0000 O   0  0  0  0  0  0  0  0  0  0  0  0
   12.5263  -10.2887    0.0000 O   0  0  0  0  0  0  0  0  0  0  0  0
    6.6742    3.1652    0.0000 C   0  0  1  0  0  0  0  0  0  0  0  0
    7.5383    3.6685    0.0000 C   0  0  2  0  0  0  0  0  0  0  0  0
    5.9346    3.8294    0.0000 C   0  0  2  0  0  0  0  0  0  0  0  0
    8.4062    3.1719    0.0000 C   0  0  1  0  0  0  0  0  0  0  0  0
    8.4101    2.1719    0.0000 C   0  0  1  0  0  0  0  0  0  0  0  0
    6.3362    4.7388    0.0000 C   0  0  2  0  0  0  0  0  0  0  0  0
    9.3061    1.6407    0.0000 C   0  0  2  0  0  0  0  0  0  0  0  0
    7.3253    4.6395    0.0000 C   0  0  0  0  0  0  0  0  0  0  0  0
    6.6780    2.1652    0.0000 C   0  0  0  0  0  0  0  0  0  0  0  0
    7.5460    1.6685    0.0000 C   0  0  0  0  0  0  0  0  0  0  0  0
    4.9518    3.9323    0.0000 C   0  0  1  0  0  0  0  0  0  0  0  0
   10.2102    2.1580    0.0000 C   0  0  1  0  0  0  0  0  0  0  0  0
    9.2981    3.7100    0.0000 C   0  0  0  0  0  0  0  0  0  0  0  0
    4.7443    4.8985    0.0000 C   0  0  1  0  0  0  0  0  0  0  0  0
   10.2061    3.1996    0.0000 C   0  0  0  0  0  0  0  0  0  0  0  0
    5.8101    2.6619    0.0000 C   0  0  0  0  0  0  0  0  0  0  0  0
    9.2852    0.5559    0.0000 C   0  0  0  0  0  0  0  0  0  0  0  0
   11.1560    1.6264    0.0000 C   0  0  0  0  0  0  0  0  0  0  0  0
    8.4381    1.1440    0.0000 C   0  0  0  0  0  0  0  0  0  0  0  0
    4.6368    5.8927    0.0000 C   0  0  2  0  0  0  0  0  0  0  0  0
   10.2185    0.0025    0.0000 C   0  0  0  0  0  0  0  0  0  0  0  0
    4.2836    3.1883    0.0000 C   0  0  0  0  0  0  0  0  0  0  0  0
   11.1602    0.5414    0.0000 C   0  0  2  0  0  0  0  0  0  0  0  0
    3.7220    6.2967    0.0000 C   0  0  0  0  0  0  0  0  0  0  0  0
    2.9148    5.7065    0.0000 C   0  0  2  0  0  0  0  0  0  0  0  0
    3.0223    4.7123    0.0000 C   0  0  0  0  0  0  0  0  0  0  0  0
    2.0000    6.1105    0.0000 C   0  0  0  0  0  0  0  0  0  0  0  0
    5.3365    7.4771    0.0000 C   0  0  2  0  0  0  0  0  0  0  0  0
   12.0262   -0.9586    0.0000 C   0  0  2  0  0  0  0  0  0  0  0  0
    6.1438    8.0673    0.0000 C   0  0  1  0  0  0  0  0  0  0  0  0
   12.8922   -1.4586    0.0000 C   0  0  1  0  0  0  0  0  0  0  0  0
    6.0363    9.0615    0.0000 C   0  0  2  0  0  0  0  0  0  0  0  0
   12.8922   -2.4586    0.0000 C   0  0  2  0  0  0  0  0  0  0  0  0
    4.3143    8.8753    0.0000 C   0  0  1  0  0  0  0  0  0  0  0  0
   11.1602   -2.4586    0.0000 C   0  0  1  0  0  0  0  0  0  0  0  0
    5.1215    9.4655    0.0000 C   0  0  1  0  0  0  0  0  0  0  0  0
   12.0262   -2.9586    0.0000 C   0  0  2  0  0  0  0  0  0  0  0  0
    3.3995    9.2793    0.0000 C   0  0  0  0  0  0  0  0  0  0  0  0
   10.2942   -2.9586    0.0000 C   0  0  0  0  0  0  0  0  0  0  0  0
   11.1602   -4.4586    0.0000 C   0  0  2  0  0  0  0  0  0  0  0  0
   11.1602   -5.4586    0.0000 C   0  0  1  0  0  0  0  0  0  0  0  0
   10.2942   -5.9586    0.0000 C   0  0  2  0  0  0  0  0  0  0  0  0
    9.4281   -4.4586    0.0000 C   0  0  1  0  0  0  0  0  0  0  0  0
    9.4281   -5.4586    0.0000 C   0  0  1  0  0  0  0  0  0  0  0  0
    8.5621   -3.9586    0.0000 C   0  0  0  0  0  0  0  0  0  0  0  0
   12.5263   -6.8246    0.0000 C   0  0  2  0  0  0  0  0  0  0  0  0
    9.4281   -7.4586    0.0000 C   0  0  2  0  0  0  0  0  0  0  0  0
   13.5262   -6.8246    0.0000 C   0  0  1  0  0  0  0  0  0  0  0  0
   14.0262   -7.6906    0.0000 C   0  0  2  0  0  0  0  0  0  0  0  0
    9.4281   -8.4586    0.0000 C   0  0  1  0  0  0  0  0  0  0  0  0
   12.5263   -8.5566    0.0000 C   0  0  1  0  0  0  0  0  0  0  0  0
   13.5263   -8.5566    0.0000 C   0  0  1  0  0  0  0  0  0  0  0  0
    8.5621   -8.9586    0.0000 C   0  0  2  0  0  0  0  0  0  0  0  0
    7.6961   -7.4586    0.0000 C   0  0  0  0  0  0  0  0  0  0  0  0
    7.6961   -8.4586    0.0000 C   0  0  1  0  0  0  0  0  0  0  0  0
   12.0262   -9.4227    0.0000 C   0  0  0  0  0  0  0  0  0  0  0  0
    8.2234    4.1717    0.0000 H   0  0  0  0  0  0  0  0  0  0  0  0
    5.5895    3.0526    0.0000 H   0  0  0  0  0  0  0  0  0  0  0  0
    8.3964    4.0218    0.0000 H   0  0  0  0  0  0  0  0  0  0  0  0
    9.1478    2.5940    0.0000 H   0  0  0  0  0  0  0  0  0  0  0  0
    6.6779    5.5170    0.0000 H   0  0  0  0  0  0  0  0  0  0  0  0
    7.9415    4.7080    0.0000 H   0  0  0  0  0  0  0  0  0  0  0  0
    7.3220    5.2595    0.0000 H   0  0  0  0  0  0  0  0  0  0  0  0
    6.0670    2.2705    0.0000 H   0  0  0  0  0  0  0  0  0  0  0  0
    6.4682    1.5818    0.0000 H   0  0  0  0  0  0  0  0  0  0  0  0
    7.1493    1.1921    0.0000 H   0  0  0  0  0  0  0  0  0  0  0  0
    7.9463    1.1951    0.0000 H   0  0  0  0  0  0  0  0  0  0  0  0
    4.3526    4.0918    0.0000 H   0  0  0  0  0  0  0  0  0  0  0  0
   10.9430    2.5887    0.0000 H   0  0  0  0  0  0  0  0  0  0  0  0
    9.6899    4.1905    0.0000 H   0  0  0  0  0  0  0  0  0  0  0  0
    8.8917    4.1782    0.0000 H   0  0  0  0  0  0  0  0  0  0  0  0
   10.8174    3.0959    0.0000 H   0  0  0  0  0  0  0  0  0  0  0  0
   10.4129    3.7841    0.0000 H   0  0  0  0  0  0  0  0  0  0  0  0
    5.4980    3.1976    0.0000 H   0  0  0  0  0  0  0  0  0  0  0  0
    5.2744    2.3498    0.0000 H   0  0  0  0  0  0  0  0  0  0  0  0
    6.1222    2.1261    0.0000 H   0  0  0  0  0  0  0  0  0  0  0  0
    8.6765    0.6737    0.0000 H   0  0  0  0  0  0  0  0  0  0  0  0
    9.0649   -0.0237    0.0000 H   0  0  0  0  0  0  0  0  0  0  0  0
   11.7673    1.5227    0.0000 H   0  0  0  0  0  0  0  0  0  0  0  0
   11.3628    2.2109    0.0000 H   0  0  0  0  0  0  0  0  0  0  0  0
    8.1302    1.6821    0.0000 H   0  0  0  0  0  0  0  0  0  0  0  0
    7.9000    0.8361    0.0000 H   0  0  0  0  0  0  0  0  0  0  0  0
    8.7460    0.6059    0.0000 H   0  0  0  0  0  0  0  0  0  0  0  0
    4.5701    6.5091    0.0000 H   0  0  0  0  0  0  0  0  0  0  0  0
    9.8157   -0.4688    0.0000 H   0  0  0  0  0  0  0  0  0  0  0  0
   10.6139   -0.4750    0.0000 H   0  0  0  0  0  0  0  0  0  0  0  0
    3.8223    3.6026    0.0000 H   0  0  0  0  0  0  0  0  0  0  0  0
    3.8693    2.7271    0.0000 H   0  0  0  0  0  0  0  0  0  0  0  0
    4.7449    2.7741    0.0000 H   0  0  0  0  0  0  0  0  0  0  0  0
   11.1590   -0.0786    0.0000 H   0  0  0  0  0  0  0  0  0  0  0  0
    4.0672    6.8117    0.0000 H   0  0  0  0  0  0  0  0  0  0  0  0
    3.2747    6.7261    0.0000 H   0  0  0  0  0  0  0  0  0  0  0  0
    2.8481    6.3229    0.0000 H   0  0  0  0  0  0  0  0  0  0  0  0
    2.4036    4.7537    0.0000 H   0  0  0  0  0  0  0  0  0  0  0  0
    2.8741    4.1103    0.0000 H   0  0  0  0  0  0  0  0  0  0  0  0
    2.2505    6.6777    0.0000 H   0  0  0  0  0  0  0  0  0  0  0  0
    1.4328    6.3610    0.0000 H   0  0  0  0  0  0  0  0  0  0  0  0
    1.7495    5.5434    0.0000 H   0  0  0  0  0  0  0  0  0  0  0  0
    5.9037    7.2266    0.0000 H   0  0  0  0  0  0  0  0  0  0  0  0
   12.5631   -0.6486    0.0000 H   0  0  0  0  0  0  0  0  0  0  0  0
    6.6443    8.4332    0.0000 H   0  0  0  0  0  0  0  0  0  0  0  0
   13.4292   -1.7686    0.0000 H   0  0  0  0  0  0  0  0  0  0  0  0
    6.6034    8.8110    0.0000 H   0  0  0  0  0  0  0  0  0  0  0  0
   13.4292   -2.1486    0.0000 H   0  0  0  0  0  0  0  0  0  0  0  0
    3.8138    8.5094    0.0000 H   0  0  0  0  0  0  0  0  0  0  0  0
   10.6232   -2.1486    0.0000 H   0  0  0  0  0  0  0  0  0  0  0  0
    5.6220    9.8314    0.0000 H   0  0  0  0  0  0  0  0  0  0  0  0
   12.5631   -3.2686    0.0000 H   0  0  0  0  0  0  0  0  0  0  0  0
    7.5590    8.0292    0.0000 H   0  0  0  0  0  0  0  0  0  0  0  0
   13.7583   -0.3386    0.0000 H   0  0  0  0  0  0  0  0  0  0  0  0
    2.7809    9.3207    0.0000 H   0  0  0  0  0  0  0  0  0  0  0  0
    3.2513    8.6773    0.0000 H   0  0  0  0  0  0  0  0  0  0  0  0
    9.8956   -3.4335    0.0000 H   0  0  0  0  0  0  0  0  0  0  0  0
   10.6927   -3.4335    0.0000 H   0  0  0  0  0  0  0  0  0  0  0  0
    6.7769   10.2681    0.0000 H   0  0  0  0  0  0  0  0  0  0  0  0
   14.2952   -2.6486    0.0000 H   0  0  0  0  0  0  0  0  0  0  0  0
    5.5145   10.8256    0.0000 H   0  0  0  0  0  0  0  0  0  0  0  0
   11.6971   -4.7686    0.0000 H   0  0  0  0  0  0  0  0  0  0  0  0
    2.7249   10.5240    0.0000 H   0  0  0  0  0  0  0  0  0  0  0  0
    9.4281   -1.8386    0.0000 H   0  0  0  0  0  0  0  0  0  0  0  0
   11.1602   -6.0786    0.0000 H   0  0  0  0  0  0  0  0  0  0  0  0
    9.7572   -6.2686    0.0000 H   0  0  0  0  0  0  0  0  0  0  0  0
    9.4281   -3.8386    0.0000 H   0  0  0  0  0  0  0  0  0  0  0  0
    8.8912   -5.1486    0.0000 H   0  0  0  0  0  0  0  0  0  0  0  0
    7.9515   -3.8509    0.0000 H   0  0  0  0  0  0  0  0  0  0  0  0
    8.3500   -4.5412    0.0000 H   0  0  0  0  0  0  0  0  0  0  0  0
   12.8363   -6.2876    0.0000 H   0  0  0  0  0  0  0  0  0  0  0  0
    8.0252   -5.6486    0.0000 H   0  0  0  0  0  0  0  0  0  0  0  0
    9.4281   -6.8386    0.0000 H   0  0  0  0  0  0  0  0  0  0  0  0
   14.1462   -6.8246    0.0000 H   0  0  0  0  0  0  0  0  0  0  0  0
    8.0252   -2.6486    0.0000 H   0  0  0  0  0  0  0  0  0  0  0  0
   14.3362   -8.2276    0.0000 H   0  0  0  0  0  0  0  0  0  0  0  0
    9.4281   -9.0786    0.0000 H   0  0  0  0  0  0  0  0  0  0  0  0
   11.9063   -8.5566    0.0000 H   0  0  0  0  0  0  0  0  0  0  0  0
   14.1463   -8.5566    0.0000 H   0  0  0  0  0  0  0  0  0  0  0  0
    8.0252   -9.2686    0.0000 H   0  0  0  0  0  0  0  0  0  0  0  0
   14.6462   -5.9586    0.0000 H   0  0  0  0  0  0  0  0  0  0  0  0
    7.4840   -6.8760    0.0000 H   0  0  0  0  0  0  0  0  0  0  0  0
    7.0855   -7.5662    0.0000 H   0  0  0  0  0  0  0  0  0  0  0  0
    7.1591   -8.1486    0.0000 H   0  0  0  0  0  0  0  0  0  0  0  0
   11.5513   -9.0242    0.0000 H   0  0  0  0  0  0  0  0  0  0  0  0
   11.5513   -9.8212    0.0000 H   0  0  0  0  0  0  0  0  0  0  0  0
   15.3362   -7.1537    0.0000 H   0  0  0  0  0  0  0  0  0  0  0  0
   10.2942   -9.5786    0.0000 H   0  0  0  0  0  0  0  0  0  0  0  0
   14.6462   -9.4227    0.0000 H   0  0  0  0  0  0  0  0  0  0  0  0
    8.0252  -10.2686    0.0000 H   0  0  0  0  0  0  0  0  0  0  0  0
    6.2931   -8.6486    0.0000 H   0  0  0  0  0  0  0  0  0  0  0  0
   12.2162  -10.8256    0.0000 H   0  0  0  0  0  0  0  0  0  0  0  0
  1 34  1  0  0  0  0
 42  1  1  6  0  0  0
  2 42  1  0  0  0  0
  2 54  1  0  0  0  0
 48  3  1  6  0  0  0
 56  3  1  6  0  0  0
 51  4  1  1  0  0  0
 57  4  1  1  0  0  0
  5 56  1  0  0  0  0
  5 62  1  0  0  0  0
  6 57  1  0  0  0  0
  6 63  1  0  0  0  0
 58  7  1  1  0  0  0
  7137  1  0  0  0  0
 59  8  1  6  0  0  0
  8138  1  0  0  0  0
 60  9  1  6  0  0  0
  9143  1  0  0  0  0
 61 10  1  1  0  0  0
 10144  1  0  0  0  0
 65 11  1  1  0  0  0
 68 11  1  1  0  0  0
 64 12  1  1  0  0  0
 12145  1  0  0  0  0
 13 66  1  0  0  0  0
 13147  1  0  0  0  0
 14 67  1  0  0  0  0
 14148  1  0  0  0  0
 15 68  1  0  0  0  0
 15 71  1  0  0  0  0
 69 16  1  6  0  0  0
 74 16  1  1  0  0  0
 70 17  1  1  0  0  0
 75 17  1  1  0  0  0
 72 18  1  6  0  0  0
 18156  1  0  0  0  0
 19 74  1  0  0  0  0
 19 79  1  0  0  0  0
 20 73  1  0  0  0  0
 20159  1  0  0  0  0
 21 75  1  0  0  0  0
 21 82  1  0  0  0  0
 76 22  1  6  0  0  0
 22165  1  0  0  0  0
 77 23  1  1  0  0  0
 23171  1  0  0  0  0
 78 24  1  6  0  0  0
 24172  1  0  0  0  0
 80 25  1  6  0  0  0
 25173  1  0  0  0  0
 81 26  1  1  0  0  0
 26174  1  0  0  0  0
 83 27  1  6  0  0  0
 27175  1  0  0  0  0
 28 84  1  0  0  0  0
 28176  1  0  0  0  0
 29 30  1  0  0  0  0
 29 31  1  0  0  0  0
 29 37  1  0  0  0  0
 29 44  1  1  0  0  0
 30 32  1  0  0  0  0
 30 36  1  0  0  0  0
 30 85  1  6  0  0  0
 31 34  1  0  0  0  0
 31 39  1  0  0  0  0
 31 86  1  6  0  0  0
 32 33  1  0  0  0  0
 32 41  1  0  0  0  0
 32 87  1  1  0  0  0
 33 35  1  0  0  0  0
 33 38  1  0  0  0  0
 33 88  1  6  0  0  0
 34 36  1  0  0  0  0
 34 89  1  6  0  0  0
 35 40  1  0  0  0  0
 35 45  1  0  0  0  0
 35 47  1  1  0  0  0
 36 90  1  0  0  0  0
 36 91  1  0  0  0  0
 37 38  1  0  0  0  0
 37 92  1  0  0  0  0
 37 93  1  0  0  0  0
 38 94  1  0  0  0  0
 38 95  1  0  0  0  0
 39 42  1  0  0  0  0
 39 50  1  6  0  0  0
 39 96  1  0  0  0  0
 40 43  1  0  0  0  0
 40 46  1  0  0  0  0
 40 97  1  6  0  0  0
 41 43  1  0  0  0  0
 41 98  1  0  0  0  0
 41 99  1  0  0  0  0
 42 48  1  0  0  0  0
 43100  1  0  0  0  0
 43101  1  0  0  0  0
 44102  1  0  0  0  0
 44103  1  0  0  0  0
 44104  1  0  0  0  0
 45 49  1  0  0  0  0
 45105  1  0  0  0  0
 45106  1  0  0  0  0
 46 51  1  0  0  0  0
 46107  1  0  0  0  0
 46108  1  0  0  0  0
 47109  1  0  0  0  0
 47110  1  0  0  0  0
 47111  1  0  0  0  0
 48 52  1  0  0  0  0
 48112  1  0  0  0  0
 49 51  1  0  0  0  0
 49113  1  0  0  0  0
 49114  1  0  0  0  0
 50115  1  0  0  0  0
 50116  1  0  0  0  0
 50117  1  0  0  0  0
 51118  1  0  0  0  0
 52 53  1  0  0  0  0
 52119  1  0  0  0  0
 52120  1  0  0  0  0
 53 54  1  0  0  0  0
 53 55  1  6  0  0  0
 53121  1  0  0  0  0
 54122  1  0  0  0  0
 54123  1  0  0  0  0
 55124  1  0  0  0  0
 55125  1  0  0  0  0
 55126  1  0  0  0  0
 56 58  1  0  0  0  0
 56127  1  0  0  0  0
 57 59  1  0  0  0  0
 57128  1  0  0  0  0
 58 60  1  0  0  0  0
 58129  1  0  0  0  0
 59 61  1  0  0  0  0
 59130  1  0  0  0  0
 60 64  1  0  0  0  0
 60131  1  0  0  0  0
 61 65  1  0  0  0  0
 61132  1  0  0  0  0
 62 64  1  0  0  0  0
 62 66  1  6  0  0  0
 62133  1  0  0  0  0
 63 65  1  0  0  0  0
 63 67  1  1  0  0  0
 63134  1  0  0  0  0
 64135  1  0  0  0  0
 65136  1  0  0  0  0
 66139  1  0  0  0  0
 66140  1  0  0  0  0
 67141  1  0  0  0  0
 67142  1  0  0  0  0
 68 69  1  0  0  0  0
 68146  1  0  0  0  0
 69 70  1  0  0  0  0
 69149  1  0  0  0  0
 70 72  1  0  0  0  0
 70150  1  0  0  0  0
 71 72  1  0  0  0  0
 71 73  1  1  0  0  0
 71151  1  0  0  0  0
 72152  1  0  0  0  0
 73153  1  0  0  0  0
 73154  1  0  0  0  0
 74 76  1  0  0  0  0
 74155  1  0  0  0  0
 75 78  1  0  0  0  0
 75157  1  0  0  0  0
 76 77  1  0  0  0  0
 76158  1  0  0  0  0
 77 80  1  0  0  0  0
 77160  1  0  0  0  0
 78 81  1  0  0  0  0
 78161  1  0  0  0  0
 79 80  1  0  0  0  0
 79 84  1  1  0  0  0
 79162  1  0  0  0  0
 80163  1  0  0  0  0
 81 83  1  0  0  0  0
 81164  1  0  0  0  0
 82 83  1  0  0  0  0
 82166  1  0  0  0  0
 82167  1  0  0  0  0
 83168  1  0  0  0  0
 84169  1  0  0  0  0
 84170  1  0  0  0  0
M  END
> <PUBCHEM_COMPOUND_CID>
16083122

> <PUBCHEM_COMPOUND_CANONICALIZED>
1

> <PUBCHEM_CACTVS_COMPLEXITY>
2190

> <PUBCHEM_CACTVS_HBOND_ACCEPTOR>
28

> <PUBCHEM_CACTVS_HBOND_DONOR>
16

> <PUBCHEM_CACTVS_ROTATABLE_BOND>
14

> <PUBCHEM_CACTVS_SUBSKEYS>
AAADcfB8PgAAAAAAAAAAAAAAAAAAAaIAAAA0aNEiQAASAGDAAAAAGgAACAAADxSwgAMCCAAABgAAAAAAAAAAAAAAAAAAAAAAAAAREAIAAAAiQAAFAAAHAAHA4PwPgAAAAAAAAADAAAYAACAAAYAADAAAAA==

> <PUBCHEM_IUPAC_OPENEYE_NAME>
(2S,3R,4S,5S,6R)-2-[(1R,2S,3'S,4S,5'R,6S,7S,8R,9S,12S,13S,16S,18S)-16-[(2R,3R,4R,5R,6R)-3,4-dihydroxy-5-[(2S,3R,4S,5R,6R)-5-hydroxy-6-(hydroxymethyl)-3-[(2S,3R,4S,5S,6R)-3,4,5-trihydroxy-6-(hydroxymethyl)tetrahydropyran-2-yl]oxy-4-[(2S,3R,4S,5R)-3,4,5-trihydroxytetrahydropyran-2-yl]oxy-tetrahydropyran-2-yl]oxy-6-(hydroxymethyl)tetrahydropyran-2-yl]oxy-5',7,9,13-tetramethyl-spiro[5-oxapentacyclo[10.8.0.02,9.04,8.013,18]icosane-6,2'-tetrahydropyran]-3'-yl]oxy-6-(hydroxymethyl)tetrahydropyran-3,4,5-triol

> <PUBCHEM_IUPAC_CAS_NAME>
(2S,3R,4S,5S,6R)-2-[[(1R,2S,3'S,4S,5'R,6S,7S,8R,9S,12S,13S,16S,18S)-16-[[(2R,3R,4R,5R,6R)-3,4-dihydroxy-5-[[(2S,3R,4S,5R,6R)-5-hydroxy-6-(hydroxymethyl)-3-[[(2S,3R,4S,5S,6R)-3,4,5-trihydroxy-6-(hydroxymethyl)-2-oxanyl]oxy]-4-[[(2S,3R,4S,5R)-3,4,5-trihydroxy-2-oxanyl]oxy]-2-oxanyl]oxy]-6-(hydroxymethyl)-2-oxanyl]oxy]-5',7,9,13-tetramethyl-3'-spiro[5-oxapentacyclo[10.8.0.02,9.04,8.013,18]eicosane-6,2'-oxane]yl]oxy]-6-(hydroxymethyl)oxane-3,4,5-triol

> <PUBCHEM_IUPAC_NAME_MARKUP>
(2<I>S</I>,3<I>R</I>,4<I>S</I>,5<I>S</I>,6<I>R</I>)-2-[(1<I>R</I>,2<I>S</I>,3&apos;<I>S</I>,4<I>S</I>,5&apos;<I>R</I>,6<I>S</I>,7<I>S</I>,8<I>R</I>,9<I>S</I>,12<I>S</I>,13<I>S</I>,16<I>S</I>,18<I>S</I>)-16-[(2<I>R</I>,3<I>R</I>,4<I>R</I>,5<I>R</I>,6<I>R</I>)-3,4-dihydroxy-5-[(2<I>S</I>,3<I>R</I>,4<I>S</I>,5<I>R</I>,6<I>R</I>)-5-hydroxy-6-(hydroxymethyl)-3-[(2<I>S</I>,3<I>R</I>,4<I>S</I>,5<I>S</I>,6<I>R</I>)-3,4,5-trihydroxy-6-(hydroxymethyl)oxan-2-yl]oxy-4-[(2<I>S</I>,3<I>R</I>,4<I>S</I>,5<I>R</I>)-3,4,5-trihydroxyoxan-2-yl]oxyoxan-2-yl]oxy-6-(hydroxymethyl)oxan-2-yl]oxy-5&apos;,7,9,13-tetramethylspiro[5-oxapentacyclo[10.8.0.0<SUP>2,9</SUP>.0<SUP>4,8</SUP>.0<SUP>13,18</SUP>]icosane-6,2&apos;-oxane]-3&apos;-yl]oxy-6-(hydroxymethyl)oxane-3,4,5-triol

> <PUBCHEM_IUPAC_NAME>
(2S,3R,4S,5S,6R)-2-[(1R,2S,3'S,4S,5'R,6S,7S,8R,9S,12S,13S,16S,18S)-16-[(2R,3R,4R,5R,6R)-3,4-dihydroxy-5-[(2S,3R,4S,5R,6R)-5-hydroxy-6-(hydroxymethyl)-3-[(2S,3R,4S,5S,6R)-3,4,5-trihydroxy-6-(hydroxymethyl)oxan-2-yl]oxy-4-[(2S,3R,4S,5R)-3,4,5-trihydroxyoxan-2-yl]oxyoxan-2-yl]oxy-6-(hydroxymethyl)oxan-2-yl]oxy-5',7,9,13-tetramethylspiro[5-oxapentacyclo[10.8.0.02,9.04,8.013,18]icosane-6,2'-oxane]-3'-yl]oxy-6-(hydroxymethyl)oxane-3,4,5-triol

> <PUBCHEM_IUPAC_SYSTEMATIC_NAME>
(2R,3S,4S,5R,6S)-2-(hydroxymethyl)-6-[(1R,2S,3'S,4S,5'R,6S,7S,8R,9S,12S,13S,16S,18S)-16-[(2R,3R,4R,5R,6R)-6-(hydroxymethyl)-5-[(2S,3R,4S,5R,6R)-6-(hydroxymethyl)-3-[(2S,3R,4S,5S,6R)-6-(hydroxymethyl)-3,4,5-tris(oxidanyl)oxan-2-yl]oxy-5-oxidanyl-4-[(2S,3R,4S,5R)-3,4,5-tris(oxidanyl)oxan-2-yl]oxy-oxan-2-yl]oxy-3,4-bis(oxidanyl)oxan-2-yl]oxy-5',7,9,13-tetramethyl-spiro[5-oxapentacyclo[10.8.0.02,9.04,8.013,18]icosane-6,2'-oxane]-3'-yl]oxy-oxane-3,4,5-triol

> <PUBCHEM_IUPAC_TRADITIONAL_NAME>
(2S,3R,4S,5S,6R)-2-[(1R,2S,3'S,4S,5'R,6S,7S,8R,9S,12S,13S,16S,18S)-16-[(2R,3R,4R,5R,6R)-3,4-dihydroxy-5-[(2S,3R,4S,5R,6R)-5-hydroxy-6-methylol-3-[(2S,3R,4S,5S,6R)-3,4,5-trihydroxy-6-methylol-tetrahydropyran-2-yl]oxy-4-[(2S,3R,4S,5R)-3,4,5-trihydroxytetrahydropyran-2-yl]oxy-tetrahydropyran-2-yl]oxy-6-methylol-tetrahydropyran-2-yl]oxy-5',7,9,13-tetramethyl-spiro[5-oxapentacyclo[10.8.0.02,9.04,8.013,18]eicosane-6,2'-tetrahydropyran]-3'-yl]oxy-6-methylol-tetrahydropyran-3,4,5-triol

> <PUBCHEM_IUPAC_INCHI>
InChI=1S/C56H92O28/c1-20-11-33(80-51-43(70)39(66)36(63)29(14-57)76-51)56(74-18-20)21(2)34-28(84-56)13-26-24-6-5-22-12-23(7-9-54(22,3)25(24)8-10-55(26,34)4)75-50-45(72)41(68)46(32(17-60)79-50)81-53-48(83-52-44(71)40(67)37(64)30(15-58)77-52)47(38(65)31(16-59)78-53)82-49-42(69)35(62)27(61)19-73-49/h20-53,57-72H,5-19H2,1-4H3/t20-,21+,22+,23+,24-,25+,26+,27-,28+,29-,30-,31-,32-,33+,34+,35+,36-,37-,38-,39+,40+,41-,42-,43-,44-,45-,46+,47+,48-,49+,50-,51+,52+,53+,54+,55+,56+/m1/s1

> <PUBCHEM_IUPAC_INCHIKEY>
NHXQDKBXCHZJKL-FNNZHAAJSA-N

> <PUBCHEM_XLOGP3_AA>
-2.9

> <PUBCHEM_EXACT_MASS>
1212.577512

> <PUBCHEM_MOLECULAR_FORMULA>
C56H92O28

> <PUBCHEM_MOLECULAR_WEIGHT>
1213.3

> <PUBCHEM_OPENEYE_CAN_SMILES>
CC1CC(C2(C(C3C(O2)CC4C3(CCC5C4CCC6C5(CCC(C6)OC7C(C(C(C(O7)CO)OC8C(C(C(C(O8)CO)O)OC9C(C(C(CO9)O)O)O)OC2C(C(C(C(O2)CO)O)O)O)O)O)C)C)C)OC1)OC1C(C(C(C(O1)CO)O)O)O

> <PUBCHEM_OPENEYE_ISO_SMILES>
C[C@@H]1C[C@@H]([C@@]2([C@H]([C@H]3[C@@H](O2)C[C@@H]4[C@@]3(CC[C@H]5[C@H]4CC[C@@H]6[C@@]5(CC[C@@H](C6)O[C@H]7[C@@H]([C@H]([C@H]([C@H](O7)CO)O[C@H]8[C@@H]([C@H]([C@@H]([C@H](O8)CO)O)O[C@H]9[C@@H]([C@H]([C@@H](CO9)O)O)O)O[C@H]2[C@@H]([C@H]([C@@H]([C@H](O2)CO)O)O)O)O)O)C)C)C)OC1)O[C@H]1[C@@H]([C@H]([C@@H]([C@H](O1)CO)O)O)O

> <PUBCHEM_CACTVS_TPSA>
434

> <PUBCHEM_MONOISOTOPIC_WEIGHT>
1212.577512

> <PUBCHEM_TOTAL_CHARGE>
0

> <PUBCHEM_HEAVY_ATOM_COUNT>
84

> <PUBCHEM_ATOM_DEF_STEREO_COUNT>
37

> <PUBCHEM_ATOM_UDEF_STEREO_COUNT>
0

> <PUBCHEM_BOND_DEF_STEREO_COUNT>
0

> <PUBCHEM_BOND_UDEF_STEREO_COUNT>
0

> <PUBCHEM_ISOTOPIC_ATOM_COUNT>
0

> <PUBCHEM_COMPONENT_COUNT>
1

> <PUBCHEM_CACTVS_TAUTO_COUNT>
-1

> <PUBCHEM_COORDINATE_TYPE>
1
5
255

> <PUBCHEM_BONDANNOTATIONS>
42  1  6
61  10  5
65  11  5
68  11  5
64  12  5
69  16  6
74  16  5
70  17  5
75  17  5
72  18  6
76  22  6
77  23  5
78  24  6
80  25  6
81  26  5
83  27  6
29  44  5
48  3  6
56  3  6
30  85  6
31  86  6
32  87  5
33  88  6
34  89  6
35  47  5
39  50  6
51  4  5
57  4  5
40  97  6
53  55  6
62  66  6
63  67  5
58  7  5
71  73  5
79  84  5
59  8  6
60  9  6

$$$$
