5477870
  -OEChem-09302014292D

 32 35  0     1  0  0  0  0  0999 V2000
    6.1159    1.3092    0.0000 O   0  0  0  0  0  0  0  0  0  0  0  0
    5.9256   -1.1743    0.0000 O   0  0  0  0  0  0  0  0  0  0  0  0
    4.2698    1.8252    0.0000 O   0  0  0  0  0  0  0  0  0  0  0  0
    2.5658    1.9825    0.0000 O   0  0  0  0  0  0  0  0  0  0  0  0
    7.5074   -1.9825    0.0000 O   0  0  0  0  0  0  0  0  0  0  0  0
    4.8069    0.3581    0.0000 C   0  0  3  0  0  0  0  0  0  0  0  0
    5.6159   -0.2297    0.0000 C   0  0  3  0  0  0  0  0  0  0  0  0
    4.0042   -0.2283    0.0000 C   0  0  3  0  0  0  0  0  0  0  0  0
    6.4250    0.3581    0.0000 C   0  0  3  0  0  0  0  0  0  0  0  0
    5.1159    1.3092    0.0000 C   0  0  3  0  0  0  0  0  0  0  0  0
    5.3063   -1.1743    0.0000 C   0  0  0  0  0  0  0  0  0  0  0  0
    3.2491    0.4136    0.0000 C   0  0  0  0  0  0  0  0  0  0  0  0
    4.3122   -1.1735    0.0000 C   0  0  0  0  0  0  0  0  0  0  0  0
    7.2277   -0.2283    0.0000 C   0  0  0  0  0  0  0  0  0  0  0  0
    3.3762    1.3965    0.0000 C   0  0  3  0  0  0  0  0  0  0  0  0
    6.9197   -1.1735    0.0000 C   0  0  0  0  0  0  0  0  0  0  0  0
    8.1793    0.0791    0.0000 C   0  0  0  0  0  0  0  0  0  0  0  0
    8.9212   -0.5913    0.0000 C   0  0  0  0  0  0  0  0  0  0  0  0
    4.3049    0.7219    0.0000 H   0  0  0  0  0  0  0  0  0  0  0  0
    3.4893   -0.5736    0.0000 H   0  0  0  0  0  0  0  0  0  0  0  0
    6.9270    0.7219    0.0000 H   0  0  0  0  0  0  0  0  0  0  0  0
    5.2836    1.9061    0.0000 H   0  0  0  0  0  0  0  0  0  0  0  0
    5.6699   -1.6765    0.0000 H   0  0  0  0  0  0  0  0  0  0  0  0
    2.6606    0.6090    0.0000 H   0  0  0  0  0  0  0  0  0  0  0  0
    2.9450   -0.1267    0.0000 H   0  0  0  0  0  0  0  0  0  0  0  0
    3.9478   -1.6750    0.0000 H   0  0  0  0  0  0  0  0  0  0  0  0
    3.4315    2.0140    0.0000 H   0  0  0  0  0  0  0  0  0  0  0  0
    8.3092    0.6853    0.0000 H   0  0  0  0  0  0  0  0  0  0  0  0
    2.0000    1.7290    0.0000 H   0  0  0  0  0  0  0  0  0  0  0  0
    8.5056   -1.0514    0.0000 H   0  0  0  0  0  0  0  0  0  0  0  0
    9.3813   -1.0070    0.0000 H   0  0  0  0  0  0  0  0  0  0  0  0
    9.3369   -0.1313    0.0000 H   0  0  0  0  0  0  0  0  0  0  0  0
  1  9  1  0  0  0  0
  1 10  1  0  0  0  0
  2  7  1  0  0  0  0
  2 16  1  0  0  0  0
  3 10  1  0  0  0  0
  3 15  1  0  0  0  0
  4 15  1  0  0  0  0
  4 29  1  0  0  0  0
  5 16  2  0  0  0  0
  6  7  1  0  0  0  0
  6  8  1  0  0  0  0
  6 10  1  0  0  0  0
  6 19  1  0  0  0  0
  7  9  1  0  0  0  0
  7 11  1  0  0  0  0
  8 12  1  0  0  0  0
  8 13  1  0  0  0  0
  8 20  1  0  0  0  0
  9 14  1  0  0  0  0
  9 21  1  0  0  0  0
 10 22  1  0  0  0  0
 11 13  2  0  0  0  0
 11 23  1  0  0  0  0
 12 15  1  0  0  0  0
 12 24  1  0  0  0  0
 12 25  1  0  0  0  0
 13 26  1  0  0  0  0
 14 16  1  0  0  0  0
 14 17  2  0  0  0  0
 15 27  1  0  0  0  0
 17 18  1  0  0  0  0
 17 28  1  0  0  0  0
 18 30  1  0  0  0  0
 18 31  1  0  0  0  0
 18 32  1  0  0  0  0
M  END
> <PUBCHEM_COMPOUND_CID>
5477870

> <PUBCHEM_COMPOUND_CANONICALIZED>
1

> <PUBCHEM_CACTVS_COMPLEXITY>
482

> <PUBCHEM_CACTVS_HBOND_ACCEPTOR>
5

> <PUBCHEM_CACTVS_HBOND_DONOR>
1

> <PUBCHEM_CACTVS_ROTATABLE_BOND>
0

> <PUBCHEM_CACTVS_SUBSKEYS>
AAADccBwOAAAAAAAAAAAAAAAAAAAASJEAAAkAAAAAAASIEgAAAAAGgAACAAADVSwgAMCCAAABgCIAiDSCAAAAAAgAAAICAEAAEgRFBYAIQAiUAAF4AAOIYPK6PyOgAAAAAAAAAAAAAAAAAAAAAAAAAAAAA==

> <PUBCHEM_IUPAC_OPENEYE_NAME>
(11Z)-11-ethylidene-6-hydroxy-7,9,13-trioxatetracyclo[6.5.1.01,10.04,14]tetradec-2-en-12-one

> <PUBCHEM_IUPAC_CAS_NAME>
(11Z)-11-ethylidene-6-hydroxy-7,9,13-trioxatetracyclo[6.5.1.01,10.04,14]tetradec-2-en-12-one

> <PUBCHEM_IUPAC_NAME_MARKUP>
(11<I>Z</I>)-11-ethylidene-6-hydroxy-7,9,13-trioxatetracyclo[6.5.1.0<SUP>1,10</SUP>.0<SUP>4,14</SUP>]tetradec-2-en-12-one

> <PUBCHEM_IUPAC_NAME>
(11Z)-11-ethylidene-6-hydroxy-7,9,13-trioxatetracyclo[6.5.1.01,10.04,14]tetradec-2-en-12-one

> <PUBCHEM_IUPAC_SYSTEMATIC_NAME>
(11Z)-11-ethylidene-6-oxidanyl-7,9,13-trioxatetracyclo[6.5.1.01,10.04,14]tetradec-2-en-12-one

> <PUBCHEM_IUPAC_TRADITIONAL_NAME>
(11Z)-11-ethylidene-6-hydroxy-7,9,13-trioxatetracyclo[6.5.1.01,10.04,14]tetradec-2-en-12-one

> <PUBCHEM_IUPAC_INCHI>
InChI=1S/C13H14O5/c1-2-7-10-13(18-11(7)15)4-3-6-5-8(14)16-12(17-10)9(6)13/h2-4,6,8-10,12,14H,5H2,1H3/b7-2-

> <PUBCHEM_IUPAC_INCHIKEY>
DWWKELQVGKIHDR-UQCOIBPSSA-N

> <PUBCHEM_XLOGP3_AA>
0.4

> <PUBCHEM_EXACT_MASS>
250.084124

> <PUBCHEM_MOLECULAR_FORMULA>
C13H14O5

> <PUBCHEM_MOLECULAR_WEIGHT>
250.25

> <PUBCHEM_OPENEYE_CAN_SMILES>
CC=C1C2C3(C=CC4C3C(O2)OC(C4)O)OC1=O

> <PUBCHEM_OPENEYE_ISO_SMILES>
C/C=C\1/C2C3(C=CC4C3C(O2)OC(C4)O)OC1=O

> <PUBCHEM_CACTVS_TPSA>
65

> <PUBCHEM_MONOISOTOPIC_WEIGHT>
250.084124

> <PUBCHEM_TOTAL_CHARGE>
0

> <PUBCHEM_HEAVY_ATOM_COUNT>
18

> <PUBCHEM_ATOM_DEF_STEREO_COUNT>
0

> <PUBCHEM_ATOM_UDEF_STEREO_COUNT>
6

> <PUBCHEM_BOND_DEF_STEREO_COUNT>
1

> <PUBCHEM_BOND_UDEF_STEREO_COUNT>
0

> <PUBCHEM_ISOTOPIC_ATOM_COUNT>
0

> <PUBCHEM_COMPONENT_COUNT>
1

> <PUBCHEM_CACTVS_TAUTO_COUNT>
-1

> <PUBCHEM_COORDINATE_TYPE>
1
5
255

> <PUBCHEM_BONDANNOTATIONS>
10  3  3
15  4  3
6  8  3
7  11  3
8  12  3
9  14  3

$$$$
