14807653
  -OEChem-10012008312D

 40 42  0     1  0  0  0  0  0999 V2000
    5.3220   -2.3101    0.0000 O   0  0  0  0  0  0  0  0  0  0  0  0
    3.4178   -1.1327    0.0000 C   0  0  3  0  0  0  0  0  0  0  0  0
    4.8168   -1.1239    0.0000 C   0  0  3  0  0  0  0  0  0  0  0  0
    3.6766   -0.1668    0.0000 C   0  0  3  0  0  0  0  0  0  0  0  0
    2.0000   -1.2091    0.0000 C   0  0  3  0  0  0  0  0  0  0  0  0
    4.3673   -2.0126    0.0000 C   0  0  3  0  0  0  0  0  0  0  0  0
    3.5981    1.2940    0.0000 C   0  0  3  0  0  0  0  0  0  0  0  0
    2.1969    0.4850    0.0000 C   0  0  0  0  0  0  0  0  0  0  0  0
    2.5023   -2.0690    0.0000 C   0  0  0  0  0  0  0  0  0  0  0  0
    3.4454   -2.3891    0.0000 C   0  0  0  0  0  0  0  0  0  0  0  0
    2.6036    1.3985    0.0000 C   0  0  0  0  0  0  0  0  0  0  0  0
    2.9319   -2.1750    0.0000 C   0  0  0  0  0  0  0  0  0  0  0  0
    4.5871   -2.9882    0.0000 C   0  0  0  0  0  0  0  0  0  0  0  0
    4.2673    2.0371    0.0000 C   0  0  0  0  0  0  0  0  0  0  0  0
    3.9582    2.9882    0.0000 C   0  0  0  0  0  0  0  0  0  0  0  0
    5.2454    1.8292    0.0000 C   0  0  0  0  0  0  0  0  0  0  0  0
    5.4241   -0.9994    0.0000 H   0  0  0  0  0  0  0  0  0  0  0  0
    4.2314    0.1102    0.0000 H   0  0  0  0  0  0  0  0  0  0  0  0
    1.3982   -1.0599    0.0000 H   0  0  0  0  0  0  0  0  0  0  0  0
    4.1827    1.0874    0.0000 H   0  0  0  0  0  0  0  0  0  0  0  0
    1.6808    0.8285    0.0000 H   0  0  0  0  0  0  0  0  0  0  0  0
    1.7716    0.0338    0.0000 H   0  0  0  0  0  0  0  0  0  0  0  0
    1.9006   -2.2184    0.0000 H   0  0  0  0  0  0  0  0  0  0  0  0
    2.4763   -2.6885    0.0000 H   0  0  0  0  0  0  0  0  0  0  0  0
    3.0889   -2.8964    0.0000 H   0  0  0  0  0  0  0  0  0  0  0  0
    3.8318   -2.8739    0.0000 H   0  0  0  0  0  0  0  0  0  0  0  0
    2.7325    2.0050    0.0000 H   0  0  0  0  0  0  0  0  0  0  0  0
    2.0140    1.5901    0.0000 H   0  0  0  0  0  0  0  0  0  0  0  0
    2.3699   -1.9130    0.0000 H   0  0  0  0  0  0  0  0  0  0  0  0
    2.6699   -2.7369    0.0000 H   0  0  0  0  0  0  0  0  0  0  0  0
    3.4938   -2.4370    0.0000 H   0  0  0  0  0  0  0  0  0  0  0  0
    3.9822   -3.1244    0.0000 H   0  0  0  0  0  0  0  0  0  0  0  0
    4.7233   -3.5930    0.0000 H   0  0  0  0  0  0  0  0  0  0  0  0
    5.1919   -2.8519    0.0000 H   0  0  0  0  0  0  0  0  0  0  0  0
    5.7778   -1.8897    0.0000 H   0  0  0  0  0  0  0  0  0  0  0  0
    4.5479    3.1798    0.0000 H   0  0  0  0  0  0  0  0  0  0  0  0
    3.7667    3.5778    0.0000 H   0  0  0  0  0  0  0  0  0  0  0  0
    3.3686    2.7966    0.0000 H   0  0  0  0  0  0  0  0  0  0  0  0
    5.4370    1.2396    0.0000 H   0  0  0  0  0  0  0  0  0  0  0  0
    5.6603    2.2900    0.0000 H   0  0  0  0  0  0  0  0  0  0  0  0
  1  6  1  0  0  0  0
  1 35  1  0  0  0  0
  2  3  1  0  0  0  0
  2  5  1  0  0  0  0
  2  8  1  0  0  0  0
  2 12  1  0  0  0  0
  3  4  1  0  0  0  0
  3  6  1  0  0  0  0
  3 17  1  0  0  0  0
  4  5  1  0  0  0  0
  4  7  1  0  0  0  0
  4 18  1  0  0  0  0
  5  9  1  0  0  0  0
  5 19  1  0  0  0  0
  6 10  1  0  0  0  0
  6 13  1  0  0  0  0
  7 11  1  0  0  0  0
  7 14  1  0  0  0  0
  7 20  1  0  0  0  0
  8 11  1  0  0  0  0
  8 21  1  0  0  0  0
  8 22  1  0  0  0  0
  9 10  1  0  0  0  0
  9 23  1  0  0  0  0
  9 24  1  0  0  0  0
 10 25  1  0  0  0  0
 10 26  1  0  0  0  0
 11 27  1  0  0  0  0
 11 28  1  0  0  0  0
 12 29  1  0  0  0  0
 12 30  1  0  0  0  0
 12 31  1  0  0  0  0
 13 32  1  0  0  0  0
 13 33  1  0  0  0  0
 13 34  1  0  0  0  0
 14 15  1  0  0  0  0
 14 16  2  0  0  0  0
 15 36  1  0  0  0  0
 15 37  1  0  0  0  0
 15 38  1  0  0  0  0
 16 39  1  0  0  0  0
 16 40  1  0  0  0  0
M  END
> <PUBCHEM_COMPOUND_CID>
14807653

> <PUBCHEM_COMPOUND_CANONICALIZED>
1

> <PUBCHEM_CACTVS_COMPLEXITY>
347

> <PUBCHEM_CACTVS_HBOND_ACCEPTOR>
1

> <PUBCHEM_CACTVS_HBOND_DONOR>
1

> <PUBCHEM_CACTVS_ROTATABLE_BOND>
1

> <PUBCHEM_CACTVS_SUBSKEYS>
AAADceBwIAAAAAAAAAAAAAAAAABgAAAAAAAwYMGAAAAAAAAAAAAAGgAACAAAD0SAgAACAAAAAgCAAgBCAAAAAAAgAAAAAAAAAAgAAAIAAQAAQAAEgAAAAAGAwPAPgAAAAAAAAADAAAYAADAAAAAAAAAAAA==

> <PUBCHEM_IUPAC_OPENEYE_NAME>
8-isopropenyl-1,3-dimethyl-tricyclo[4.4.0.02,7]decan-3-ol

> <PUBCHEM_IUPAC_CAS_NAME>
1,3-dimethyl-8-(1-methylethenyl)-3-tricyclo[4.4.0.02,7]decanol

> <PUBCHEM_IUPAC_NAME_MARKUP>
1,3-dimethyl-8-prop-1-en-2-yltricyclo[4.4.0.0<SUP>2,7</SUP>]decan-3-ol

> <PUBCHEM_IUPAC_NAME>
1,3-dimethyl-8-prop-1-en-2-yltricyclo[4.4.0.02,7]decan-3-ol

> <PUBCHEM_IUPAC_SYSTEMATIC_NAME>
1,3-dimethyl-8-prop-1-en-2-yl-tricyclo[4.4.0.02,7]decan-3-ol

> <PUBCHEM_IUPAC_TRADITIONAL_NAME>
8-isopropenyl-1,3-dimethyl-tricyclo[4.4.0.02,7]decan-3-ol

> <PUBCHEM_IUPAC_INCHI>
InChI=1S/C15H24O/c1-9(2)10-5-7-14(3)11-6-8-15(4,16)13(14)12(10)11/h10-13,16H,1,5-8H2,2-4H3

> <PUBCHEM_IUPAC_INCHIKEY>
DGXZNOOUXAHVAE-UHFFFAOYSA-N

> <PUBCHEM_XLOGP3_AA>
3.9

> <PUBCHEM_EXACT_MASS>
220.182715

> <PUBCHEM_MOLECULAR_FORMULA>
C15H24O

> <PUBCHEM_MOLECULAR_WEIGHT>
220.35

> <PUBCHEM_OPENEYE_CAN_SMILES>
CC(=C)C1CCC2(C3C1C2C(CC3)(C)O)C

> <PUBCHEM_OPENEYE_ISO_SMILES>
CC(=C)C1CCC2(C3C1C2C(CC3)(C)O)C

> <PUBCHEM_CACTVS_TPSA>
20.2

> <PUBCHEM_MONOISOTOPIC_WEIGHT>
220.182715

> <PUBCHEM_TOTAL_CHARGE>
0

> <PUBCHEM_HEAVY_ATOM_COUNT>
16

> <PUBCHEM_ATOM_DEF_STEREO_COUNT>
0

> <PUBCHEM_ATOM_UDEF_STEREO_COUNT>
6

> <PUBCHEM_BOND_DEF_STEREO_COUNT>
0

> <PUBCHEM_BOND_UDEF_STEREO_COUNT>
0

> <PUBCHEM_ISOTOPIC_ATOM_COUNT>
0

> <PUBCHEM_COMPONENT_COUNT>
1

> <PUBCHEM_CACTVS_TAUTO_COUNT>
-1

> <PUBCHEM_COORDINATE_TYPE>
1
5
255

> <PUBCHEM_BONDANNOTATIONS>
6  1  3
2  12  3
3  6  3
4  7  3
5  9  3
7  14  3

$$$$
