5362672
  -OEChem-11212014462D

 63 62  0     0  0  0  0  0  0999 V2000
    2.8660    0.4400    0.0000 O   0  0  0  0  0  0  0  0  0  0  0  0
    3.7320   -1.0600    0.0000 O   0  0  0  0  0  0  0  0  0  0  0  0
   19.3205   -0.0600    0.0000 C   0  0  0  0  0  0  0  0  0  0  0  0
   20.1865    0.4400    0.0000 C   0  0  0  0  0  0  0  0  0  0  0  0
   18.4545    0.4400    0.0000 C   0  0  0  0  0  0  0  0  0  0  0  0
   21.0526   -0.0600    0.0000 C   0  0  0  0  0  0  0  0  0  0  0  0
   17.5885   -0.0600    0.0000 C   0  0  0  0  0  0  0  0  0  0  0  0
    6.3301    0.4400    0.0000 C   0  0  0  0  0  0  0  0  0  0  0  0
    5.4641   -0.0600    0.0000 C   0  0  0  0  0  0  0  0  0  0  0  0
   21.9186    0.4400    0.0000 C   0  0  0  0  0  0  0  0  0  0  0  0
   16.7224    0.4400    0.0000 C   0  0  0  0  0  0  0  0  0  0  0  0
    7.1962   -0.0600    0.0000 C   0  0  0  0  0  0  0  0  0  0  0  0
    4.5981    0.4400    0.0000 C   0  0  0  0  0  0  0  0  0  0  0  0
   15.8564   -0.0600    0.0000 C   0  0  0  0  0  0  0  0  0  0  0  0
    8.0622    0.4400    0.0000 C   0  0  0  0  0  0  0  0  0  0  0  0
   14.9904    0.4400    0.0000 C   0  0  0  0  0  0  0  0  0  0  0  0
    8.9282   -0.0600    0.0000 C   0  0  0  0  0  0  0  0  0  0  0  0
    3.7320   -0.0600    0.0000 C   0  0  0  0  0  0  0  0  0  0  0  0
    9.7942    0.4400    0.0000 C   0  0  0  0  0  0  0  0  0  0  0  0
   14.1244   -0.0600    0.0000 C   0  0  0  0  0  0  0  0  0  0  0  0
   12.3923   -0.0600    0.0000 C   0  0  0  0  0  0  0  0  0  0  0  0
   10.6603   -0.0600    0.0000 C   0  0  0  0  0  0  0  0  0  0  0  0
   13.2583    0.4400    0.0000 C   0  0  0  0  0  0  0  0  0  0  0  0
   11.5263    0.4400    0.0000 C   0  0  0  0  0  0  0  0  0  0  0  0
    2.0000   -0.0600    0.0000 C   0  0  0  0  0  0  0  0  0  0  0  0
   18.9220   -0.5349    0.0000 H   0  0  0  0  0  0  0  0  0  0  0  0
   19.7190   -0.5349    0.0000 H   0  0  0  0  0  0  0  0  0  0  0  0
   20.5851    0.9149    0.0000 H   0  0  0  0  0  0  0  0  0  0  0  0
   19.7880    0.9149    0.0000 H   0  0  0  0  0  0  0  0  0  0  0  0
   18.8530    0.9149    0.0000 H   0  0  0  0  0  0  0  0  0  0  0  0
   18.0560    0.9149    0.0000 H   0  0  0  0  0  0  0  0  0  0  0  0
   20.6540   -0.5349    0.0000 H   0  0  0  0  0  0  0  0  0  0  0  0
   21.4511   -0.5349    0.0000 H   0  0  0  0  0  0  0  0  0  0  0  0
   17.1899   -0.5349    0.0000 H   0  0  0  0  0  0  0  0  0  0  0  0
   17.9870   -0.5349    0.0000 H   0  0  0  0  0  0  0  0  0  0  0  0
    6.7287    0.9149    0.0000 H   0  0  0  0  0  0  0  0  0  0  0  0
    5.9316    0.9149    0.0000 H   0  0  0  0  0  0  0  0  0  0  0  0
    5.0656   -0.5349    0.0000 H   0  0  0  0  0  0  0  0  0  0  0  0
    5.8626   -0.5349    0.0000 H   0  0  0  0  0  0  0  0  0  0  0  0
   22.2286   -0.0969    0.0000 H   0  0  0  0  0  0  0  0  0  0  0  0
   22.4555    0.7500    0.0000 H   0  0  0  0  0  0  0  0  0  0  0  0
   21.6086    0.9769    0.0000 H   0  0  0  0  0  0  0  0  0  0  0  0
    6.7976   -0.5349    0.0000 H   0  0  0  0  0  0  0  0  0  0  0  0
    7.5947   -0.5349    0.0000 H   0  0  0  0  0  0  0  0  0  0  0  0
   16.7224    1.0600    0.0000 H   0  0  0  0  0  0  0  0  0  0  0  0
    4.9966    0.9149    0.0000 H   0  0  0  0  0  0  0  0  0  0  0  0
    4.1996    0.9149    0.0000 H   0  0  0  0  0  0  0  0  0  0  0  0
   15.8564   -0.6800    0.0000 H   0  0  0  0  0  0  0  0  0  0  0  0
    8.0622    1.0600    0.0000 H   0  0  0  0  0  0  0  0  0  0  0  0
   15.3889    0.9149    0.0000 H   0  0  0  0  0  0  0  0  0  0  0  0
   14.5919    0.9149    0.0000 H   0  0  0  0  0  0  0  0  0  0  0  0
    8.9282   -0.6800    0.0000 H   0  0  0  0  0  0  0  0  0  0  0  0
   10.1928    0.9149    0.0000 H   0  0  0  0  0  0  0  0  0  0  0  0
    9.3957    0.9149    0.0000 H   0  0  0  0  0  0  0  0  0  0  0  0
   14.1244   -0.6800    0.0000 H   0  0  0  0  0  0  0  0  0  0  0  0
   11.9938   -0.5349    0.0000 H   0  0  0  0  0  0  0  0  0  0  0  0
   12.7908   -0.5349    0.0000 H   0  0  0  0  0  0  0  0  0  0  0  0
   10.6603   -0.6800    0.0000 H   0  0  0  0  0  0  0  0  0  0  0  0
   13.2583    1.0600    0.0000 H   0  0  0  0  0  0  0  0  0  0  0  0
   11.5263    1.0600    0.0000 H   0  0  0  0  0  0  0  0  0  0  0  0
    1.6900    0.4769    0.0000 H   0  0  0  0  0  0  0  0  0  0  0  0
    1.4631   -0.3700    0.0000 H   0  0  0  0  0  0  0  0  0  0  0  0
    2.3100   -0.5969    0.0000 H   0  0  0  0  0  0  0  0  0  0  0  0
  1 18  1  0  0  0  0
  1 25  1  0  0  0  0
  2 18  2  0  0  0  0
  3  4  1  0  0  0  0
  3  5  1  0  0  0  0
  3 26  1  0  0  0  0
  3 27  1  0  0  0  0
  4  6  1  0  0  0  0
  4 28  1  0  0  0  0
  4 29  1  0  0  0  0
  5  7  1  0  0  0  0
  5 30  1  0  0  0  0
  5 31  1  0  0  0  0
  6 10  1  0  0  0  0
  6 32  1  0  0  0  0
  6 33  1  0  0  0  0
  7 11  1  0  0  0  0
  7 34  1  0  0  0  0
  7 35  1  0  0  0  0
  8  9  1  0  0  0  0
  8 12  1  0  0  0  0
  8 36  1  0  0  0  0
  8 37  1  0  0  0  0
  9 13  1  0  0  0  0
  9 38  1  0  0  0  0
  9 39  1  0  0  0  0
 10 40  1  0  0  0  0
 10 41  1  0  0  0  0
 10 42  1  0  0  0  0
 11 14  2  0  0  0  0
 11 45  1  0  0  0  0
 12 15  1  0  0  0  0
 12 43  1  0  0  0  0
 12 44  1  0  0  0  0
 13 18  1  0  0  0  0
 13 46  1  0  0  0  0
 13 47  1  0  0  0  0
 14 16  1  0  0  0  0
 14 48  1  0  0  0  0
 15 17  2  0  0  0  0
 15 49  1  0  0  0  0
 16 20  1  0  0  0  0
 16 50  1  0  0  0  0
 16 51  1  0  0  0  0
 17 19  1  0  0  0  0
 17 52  1  0  0  0  0
 19 22  1  0  0  0  0
 19 53  1  0  0  0  0
 19 54  1  0  0  0  0
 20 23  2  0  0  0  0
 20 55  1  0  0  0  0
 21 23  1  0  0  0  0
 21 24  1  0  0  0  0
 21 56  1  0  0  0  0
 21 57  1  0  0  0  0
 22 24  2  0  0  0  0
 22 58  1  0  0  0  0
 23 59  1  0  0  0  0
 24 60  1  0  0  0  0
 25 61  1  0  0  0  0
 25 62  1  0  0  0  0
 25 63  1  0  0  0  0
M  END
> <PUBCHEM_COMPOUND_CID>
5362672

> <PUBCHEM_COMPOUND_CANONICALIZED>
1

> <PUBCHEM_CACTVS_COMPLEXITY>
402

> <PUBCHEM_CACTVS_HBOND_ACCEPTOR>
2

> <PUBCHEM_CACTVS_HBOND_DONOR>
0

> <PUBCHEM_CACTVS_ROTATABLE_BOND>
17

> <PUBCHEM_CACTVS_SUBSKEYS>
AAADcfB4MAAAAAAAAAAAAAAAAAAAAAAAAAAAAAAAAAAAAAAAAAAAGgAAAAAACACAgAICCAAABACIACDSCAAAAAAgAAAICAEAAAgAABIAAQAAAAAEgAAIAAOIyAAAAAAAAAAAAAAAAAAAAAAAAAAAAAAAAA==

> <PUBCHEM_IUPAC_OPENEYE_NAME>
methyl (6E,9E,12E,15E)-docosa-6,9,12,15-tetraenoate

> <PUBCHEM_IUPAC_CAS_NAME>
(6E,9E,12E,15E)-docosa-6,9,12,15-tetraenoic acid methyl ester

> <PUBCHEM_IUPAC_NAME_MARKUP>
methyl (6<I>E</I>,9<I>E</I>,12<I>E</I>,15<I>E</I>)-docosa-6,9,12,15-tetraenoate

> <PUBCHEM_IUPAC_NAME>
methyl (6E,9E,12E,15E)-docosa-6,9,12,15-tetraenoate

> <PUBCHEM_IUPAC_SYSTEMATIC_NAME>
methyl (6E,9E,12E,15E)-docosa-6,9,12,15-tetraenoate

> <PUBCHEM_IUPAC_TRADITIONAL_NAME>
(6E,9E,12E,15E)-docosa-6,9,12,15-tetraenoic acid methyl ester

> <PUBCHEM_IUPAC_INCHI>
InChI=1S/C23H38O2/c1-3-4-5-6-7-8-9-10-11-12-13-14-15-16-17-18-19-20-21-22-23(24)25-2/h8-9,11-12,14-15,17-18H,3-7,10,13,16,19-22H2,1-2H3/b9-8+,12-11+,15-14+,18-17+

> <PUBCHEM_IUPAC_INCHIKEY>
ABTUXHHGWUMMDY-ZMDWBYSWSA-N

> <PUBCHEM_XLOGP3_AA>
7.7

> <PUBCHEM_EXACT_MASS>
346.28718

> <PUBCHEM_MOLECULAR_FORMULA>
C23H38O2

> <PUBCHEM_MOLECULAR_WEIGHT>
346.5

> <PUBCHEM_OPENEYE_CAN_SMILES>
CCCCCCC=CCC=CCC=CCC=CCCCCC(=O)OC

> <PUBCHEM_OPENEYE_ISO_SMILES>
CCCCCC/C=C/C/C=C/C/C=C/C/C=C/CCCCC(=O)OC

> <PUBCHEM_CACTVS_TPSA>
26.3

> <PUBCHEM_MONOISOTOPIC_WEIGHT>
346.28718

> <PUBCHEM_TOTAL_CHARGE>
0

> <PUBCHEM_HEAVY_ATOM_COUNT>
25

> <PUBCHEM_ATOM_DEF_STEREO_COUNT>
0

> <PUBCHEM_ATOM_UDEF_STEREO_COUNT>
0

> <PUBCHEM_BOND_DEF_STEREO_COUNT>
4

> <PUBCHEM_BOND_UDEF_STEREO_COUNT>
0

> <PUBCHEM_ISOTOPIC_ATOM_COUNT>
0

> <PUBCHEM_COMPONENT_COUNT>
1

> <PUBCHEM_CACTVS_TAUTO_COUNT>
-1

> <PUBCHEM_COORDINATE_TYPE>
1
5
255

$$$$
