14021261
  -OEChem-09182010522D

 47 49  0     1  0  0  0  0  0999 V2000
    2.8658   -2.6904    0.0000 O   0  0  0  0  0  0  0  0  0  0  0  0
    6.4359   -0.3992    0.0000 O   0  0  0  0  0  0  0  0  0  0  0  0
    5.4641   -2.1900    0.0000 O   0  0  0  0  0  0  0  0  0  0  0  0
    6.3301    1.3100    0.0000 O   0  0  0  0  0  0  0  0  0  0  0  0
    7.0991   -1.8740    0.0000 O   0  0  0  0  0  0  0  0  0  0  0  0
    5.4641    2.8100    0.0000 O   0  0  0  0  0  0  0  0  0  0  0  0
    2.8660   -1.6900    0.0000 C   0  0  3  0  0  0  0  0  0  0  0  0
    3.7320   -2.1900    0.0000 C   0  0  3  0  0  0  0  0  0  0  0  0
    4.5981   -1.6900    0.0000 C   0  0  3  0  0  0  0  0  0  0  0  0
    4.5981   -0.6900    0.0000 C   0  0  3  0  0  0  0  0  0  0  0  0
    2.8660   -0.6900    0.0000 C   0  0  0  0  0  0  0  0  0  0  0  0
    5.4641   -0.1900    0.0000 C   0  0  3  0  0  0  0  0  0  0  0  0
    2.0000   -1.1900    0.0000 C   0  0  0  0  0  0  0  0  0  0  0  0
    3.7320   -0.1900    0.0000 C   0  0  0  0  0  0  0  0  0  0  0  0
    5.4641    0.8100    0.0000 C   0  0  3  0  0  0  0  0  0  0  0  0
    4.5981    1.3100    0.0000 C   0  0  3  0  0  0  0  0  0  0  0  0
    3.7320    0.8100    0.0000 C   0  0  0  0  0  0  0  0  0  0  0  0
    5.2652   -1.4270    0.0000 C   0  0  0  0  0  0  0  0  0  0  0  0
    6.3560   -1.2049    0.0000 C   0  0  0  0  0  0  0  0  0  0  0  0
    4.5981    2.3100    0.0000 C   0  0  0  0  0  0  0  0  0  0  0  0
    4.8600   -2.3413    0.0000 C   0  0  0  0  0  0  0  0  0  0  0  0
    6.3301    2.3100    0.0000 C   0  0  0  0  0  0  0  0  0  0  0  0
    7.1962    2.8100    0.0000 C   0  0  0  0  0  0  0  0  0  0  0  0
    4.0421   -2.7269    0.0000 H   0  0  0  0  0  0  0  0  0  0  0  0
    4.5981   -2.3100    0.0000 H   0  0  0  0  0  0  0  0  0  0  0  0
    4.0611   -0.3800    0.0000 H   0  0  0  0  0  0  0  0  0  0  0  0
    2.6540   -0.1074    0.0000 H   0  0  0  0  0  0  0  0  0  0  0  0
    2.2554   -0.7977    0.0000 H   0  0  0  0  0  0  0  0  0  0  0  0
    5.9464    0.1996    0.0000 H   0  0  0  0  0  0  0  0  0  0  0  0
    2.3100   -0.6531    0.0000 H   0  0  0  0  0  0  0  0  0  0  0  0
    1.4631   -0.8800    0.0000 H   0  0  0  0  0  0  0  0  0  0  0  0
    1.6900   -1.7269    0.0000 H   0  0  0  0  0  0  0  0  0  0  0  0
    3.9441   -0.7726    0.0000 H   0  0  0  0  0  0  0  0  0  0  0  0
    4.3426   -0.0823    0.0000 H   0  0  0  0  0  0  0  0  0  0  0  0
    5.4641    1.4300    0.0000 H   0  0  0  0  0  0  0  0  0  0  0  0
    4.0611    1.6200    0.0000 H   0  0  0  0  0  0  0  0  0  0  0  0
    3.5200    1.3926    0.0000 H   0  0  0  0  0  0  0  0  0  0  0  0
    3.1215    0.7023    0.0000 H   0  0  0  0  0  0  0  0  0  0  0  0
    5.4641   -2.8100    0.0000 H   0  0  0  0  0  0  0  0  0  0  0  0
    5.2181    2.3100    0.0000 H   0  0  0  0  0  0  0  0  0  0  0  0
    4.5981    2.9300    0.0000 H   0  0  0  0  0  0  0  0  0  0  0  0
    3.9781    2.3100    0.0000 H   0  0  0  0  0  0  0  0  0  0  0  0
    4.2435   -2.4071    0.0000 H   0  0  0  0  0  0  0  0  0  0  0  0
    5.2253   -2.8422    0.0000 H   0  0  0  0  0  0  0  0  0  0  0  0
    7.5062    2.2731    0.0000 H   0  0  0  0  0  0  0  0  0  0  0  0
    7.7331    3.1200    0.0000 H   0  0  0  0  0  0  0  0  0  0  0  0
    6.8862    3.3469    0.0000 H   0  0  0  0  0  0  0  0  0  0  0  0
  1  7  1  0  0  0  0
  1  8  1  0  0  0  0
  2 12  1  0  0  0  0
  2 19  1  0  0  0  0
  3  9  1  0  0  0  0
  3 39  1  0  0  0  0
  4 15  1  0  0  0  0
  4 22  1  0  0  0  0
  5 19  2  0  0  0  0
  6 22  2  0  0  0  0
  7  8  1  0  0  0  0
  7 11  1  0  0  0  0
  7 13  1  0  0  0  0
  8  9  1  0  0  0  0
  8 24  1  0  0  0  0
  9 10  1  0  0  0  0
  9 25  1  0  0  0  0
 10 12  1  0  0  0  0
 10 18  1  0  0  0  0
 10 26  1  0  0  0  0
 11 14  1  0  0  0  0
 11 27  1  0  0  0  0
 11 28  1  0  0  0  0
 12 15  1  0  0  0  0
 12 29  1  0  0  0  0
 13 30  1  0  0  0  0
 13 31  1  0  0  0  0
 13 32  1  0  0  0  0
 14 17  1  0  0  0  0
 14 33  1  0  0  0  0
 14 34  1  0  0  0  0
 15 16  1  0  0  0  0
 15 35  1  0  0  0  0
 16 17  1  0  0  0  0
 16 20  1  0  0  0  0
 16 36  1  0  0  0  0
 17 37  1  0  0  0  0
 17 38  1  0  0  0  0
 18 19  1  0  0  0  0
 18 21  2  0  0  0  0
 20 40  1  0  0  0  0
 20 41  1  0  0  0  0
 20 42  1  0  0  0  0
 21 43  1  0  0  0  0
 21 44  1  0  0  0  0
 22 23  1  0  0  0  0
 23 45  1  0  0  0  0
 23 46  1  0  0  0  0
 23 47  1  0  0  0  0
M  END
> <PUBCHEM_COMPOUND_CID>
14021261

> <PUBCHEM_COMPOUND_CANONICALIZED>
1

> <PUBCHEM_CACTVS_COMPLEXITY>
543

> <PUBCHEM_CACTVS_HBOND_ACCEPTOR>
6

> <PUBCHEM_CACTVS_HBOND_DONOR>
1

> <PUBCHEM_CACTVS_ROTATABLE_BOND>
2

> <PUBCHEM_CACTVS_SUBSKEYS>
AAADceB4OAAAAAAAAAAAAAAAEgAAASAAAAAAAAAAAAAAAADAAAAAGgAACAAADVSggAICCAAABgCIAgDSCAAAAAAgAAAAAAEAAEgBFBIAIQACQAAFwAADIIHK7PzOAAAAAAAAAAAAAAAAAAAAAAAAAAAAAA==

> <PUBCHEM_IUPAC_OPENEYE_NAME>
(2-hydroxy-5,9-dimethyl-14-methylene-13-oxo-4,12-dioxatricyclo[9.3.0.03,5]tetradecan-10-yl) acetate

> <PUBCHEM_IUPAC_CAS_NAME>
acetic acid (2-hydroxy-5,9-dimethyl-14-methylene-13-oxo-4,12-dioxatricyclo[9.3.0.03,5]tetradecan-10-yl) ester

> <PUBCHEM_IUPAC_NAME_MARKUP>
(2-hydroxy-5,9-dimethyl-14-methylidene-13-oxo-4,12-dioxatricyclo[9.3.0.0<SUP>3,5</SUP>]tetradecan-10-yl) acetate

> <PUBCHEM_IUPAC_NAME>
(2-hydroxy-5,9-dimethyl-14-methylidene-13-oxo-4,12-dioxatricyclo[9.3.0.03,5]tetradecan-10-yl) acetate

> <PUBCHEM_IUPAC_SYSTEMATIC_NAME>
(5,9-dimethyl-14-methylidene-2-oxidanyl-13-oxidanylidene-4,12-dioxatricyclo[9.3.0.03,5]tetradecan-10-yl) ethanoate

> <PUBCHEM_IUPAC_TRADITIONAL_NAME>
acetic acid (2-hydroxy-13-keto-5,9-dimethyl-14-methylene-4,12-dioxatricyclo[9.3.0.03,5]tetradecan-10-yl) ester

> <PUBCHEM_IUPAC_INCHI>
InChI=1S/C17H24O6/c1-8-6-5-7-17(4)15(23-17)12(19)11-9(2)16(20)22-14(11)13(8)21-10(3)18/h8,11-15,19H,2,5-7H2,1,3-4H3

> <PUBCHEM_IUPAC_INCHIKEY>
ZZIWIHVMLLHIPS-UHFFFAOYSA-N

> <PUBCHEM_XLOGP3_AA>
1.5

> <PUBCHEM_EXACT_MASS>
324.157288

> <PUBCHEM_MOLECULAR_FORMULA>
C17H24O6

> <PUBCHEM_MOLECULAR_WEIGHT>
324.4

> <PUBCHEM_OPENEYE_CAN_SMILES>
CC1CCCC2(C(O2)C(C3C(C1OC(=O)C)OC(=O)C3=C)O)C

> <PUBCHEM_OPENEYE_ISO_SMILES>
CC1CCCC2(C(O2)C(C3C(C1OC(=O)C)OC(=O)C3=C)O)C

> <PUBCHEM_CACTVS_TPSA>
85.4

> <PUBCHEM_MONOISOTOPIC_WEIGHT>
324.157288

> <PUBCHEM_TOTAL_CHARGE>
0

> <PUBCHEM_HEAVY_ATOM_COUNT>
23

> <PUBCHEM_ATOM_DEF_STEREO_COUNT>
0

> <PUBCHEM_ATOM_UDEF_STEREO_COUNT>
7

> <PUBCHEM_BOND_DEF_STEREO_COUNT>
0

> <PUBCHEM_BOND_UDEF_STEREO_COUNT>
0

> <PUBCHEM_ISOTOPIC_ATOM_COUNT>
0

> <PUBCHEM_COMPONENT_COUNT>
1

> <PUBCHEM_CACTVS_TAUTO_COUNT>
-1

> <PUBCHEM_COORDINATE_TYPE>
1
5
255

> <PUBCHEM_BONDANNOTATIONS>
8  1  3
10  18  3
16  20  3
12  2  3
9  3  3
15  4  3
7  13  3

$$$$
