100987880
  -OEChem-09092001202D

159167  0     1  0  0  0  0  0999 V2000
    6.8671    0.1609    0.0000 O   0  0  0  0  0  0  0  0  0  0  0  0
   14.9183    1.7202    0.0000 O   0  0  0  0  0  0  0  0  0  0  0  0
   15.7802    3.2818    0.0000 O   0  0  0  0  0  0  0  0  0  0  0  0
   15.5264    6.3063    0.0000 O   0  0  0  0  0  0  0  0  0  0  0  0
    7.7331   -1.3391    0.0000 O   0  0  0  0  0  0  0  0  0  0  0  0
   14.0132    7.1491    0.0000 O   0  0  0  0  0  0  0  0  0  0  0  0
    5.1350   -0.8391    0.0000 O   0  0  0  0  0  0  0  0  0  0  0  0
    5.1350   -2.8391    0.0000 O   0  0  0  0  0  0  0  0  0  0  0  0
    6.8671   -3.8391    0.0000 O   0  0  0  0  0  0  0  0  0  0  0  0
    6.0010    0.6609    0.0000 O   0  0  0  0  0  0  0  0  0  0  0  0
    5.1350   -3.8391    0.0000 O   0  0  0  0  0  0  0  0  0  0  0  0
    3.4030    0.1609    0.0000 O   0  0  0  0  0  0  0  0  0  0  0  0
    3.4030    2.1609    0.0000 O   0  0  0  0  0  0  0  0  0  0  0  0
    6.8671   -5.8391    0.0000 O   0  0  0  0  0  0  0  0  0  0  0  0
    5.1350    3.1609    0.0000 O   0  0  0  0  0  0  0  0  0  0  0  0
    5.1350   -6.8391    0.0000 O   0  0  0  0  0  0  0  0  0  0  0  0
    6.8671    3.1609    0.0000 O   0  0  0  0  0  0  0  0  0  0  0  0
    3.4030   -5.8391    0.0000 O   0  0  0  0  0  0  0  0  0  0  0  0
    7.7331   -4.3391    0.0000 O   0  0  0  0  0  0  0  0  0  0  0  0
    2.5369   -4.3391    0.0000 O   0  0  0  0  0  0  0  0  0  0  0  0
    8.5991   -6.8391    0.0000 O   0  0  0  0  0  0  0  0  0  0  0  0
   10.3312   -5.8391    0.0000 O   0  0  0  0  0  0  0  0  0  0  0  0
   10.3312   -3.8391    0.0000 O   0  0  0  0  0  0  0  0  0  0  0  0
   11.3881    1.7307    0.0000 C   0  0  2  0  0  0  0  0  0  0  0  0
   10.5202    2.2274    0.0000 C   0  0  1  0  0  0  0  0  0  0  0  0
    9.6121    1.7170    0.0000 C   0  0  2  0  0  0  0  0  0  0  0  0
   12.2522    2.2340    0.0000 C   0  0  1  0  0  0  0  0  0  0  0  0
    9.6081    0.6754    0.0000 C   0  0  1  0  0  0  0  0  0  0  0  0
   11.4082    0.6893    0.0000 C   0  0  0  0  0  0  0  0  0  0  0  0
   12.2483    3.2340    0.0000 C   0  0  0  0  0  0  0  0  0  0  0  0
   10.5122    0.1580    0.0000 C   0  0  0  0  0  0  0  0  0  0  0  0
    8.6748    0.1221    0.0000 C   0  0  0  0  0  0  0  0  0  0  0  0
   13.1402    3.7721    0.0000 C   0  0  1  0  0  0  0  0  0  0  0  0
   14.0483    3.2618    0.0000 C   0  0  1  0  0  0  0  0  0  0  0  0
   13.1482    1.7028    0.0000 C   0  0  0  0  0  0  0  0  0  0  0  0
   10.5163    3.2274    0.0000 C   0  0  0  0  0  0  0  0  0  0  0  0
    8.6831    2.2775    0.0000 C   0  0  0  0  0  0  0  0  0  0  0  0
   14.0523    2.2202    0.0000 C   0  0  1  0  0  0  0  0  0  0  0  0
   12.0338    0.9671    0.0000 C   0  0  0  0  0  0  0  0  0  0  0  0
    7.7331    0.6609    0.0000 C   0  0  2  0  0  0  0  0  0  0  0  0
   11.3804    3.7307    0.0000 C   0  0  0  0  0  0  0  0  0  0  0  0
    9.6160    2.7170    0.0000 C   0  0  0  0  0  0  0  0  0  0  0  0
    7.7373    1.7459    0.0000 C   0  0  0  0  0  0  0  0  0  0  0  0
   12.5978    1.2957    0.0000 C   0  0  0  0  0  0  0  0  0  0  0  0
   13.1109    4.8567    0.0000 C   0  0  0  0  0  0  0  0  0  0  0  0
   14.9900    3.8006    0.0000 C   0  0  0  0  0  0  0  0  0  0  0  0
   14.0399    5.4172    0.0000 C   0  0  1  0  0  0  0  0  0  0  0  0
    9.1815   -0.7401    0.0000 C   0  0  0  0  0  0  0  0  0  0  0  0
    8.1815   -0.7478    0.0000 C   0  0  0  0  0  0  0  0  0  0  0  0
   14.9858    4.8856    0.0000 C   0  0  0  0  0  0  0  0  0  0  0  0
   14.9200    2.7718    0.0000 C   0  0  0  0  0  0  0  0  0  0  0  0
   13.5267    6.2754    0.0000 C   0  0  0  0  0  0  0  0  0  0  0  0
   14.5265    6.2909    0.0000 C   0  0  0  0  0  0  0  0  0  0  0  0
    6.8671   -0.8391    0.0000 C   0  0  2  0  0  0  0  0  0  0  0  0
    6.0010   -1.3391    0.0000 C   0  0  1  0  0  0  0  0  0  0  0  0
    6.0010   -2.3391    0.0000 C   0  0  2  0  0  0  0  0  0  0  0  0
    7.7331   -2.3391    0.0000 C   0  0  0  0  0  0  0  0  0  0  0  0
    6.8671   -2.8391    0.0000 C   0  0  2  0  0  0  0  0  0  0  0  0
    5.1350    0.1609    0.0000 C   0  0  2  0  0  0  0  0  0  0  0  0
    4.2690    0.6609    0.0000 C   0  0  1  0  0  0  0  0  0  0  0  0
    6.0010   -4.3391    0.0000 C   0  0  2  0  0  0  0  0  0  0  0  0
    4.2690    1.6609    0.0000 C   0  0  2  0  0  0  0  0  0  0  0  0
    6.0010    1.6609    0.0000 C   0  0  1  0  0  0  0  0  0  0  0  0
    5.1350    2.1609    0.0000 C   0  0  1  0  0  0  0  0  0  0  0  0
    6.0010   -5.3391    0.0000 C   0  0  1  0  0  0  0  0  0  0  0  0
    5.1350   -5.8391    0.0000 C   0  0  2  0  0  0  0  0  0  0  0  0
    4.2690   -4.3391    0.0000 C   0  0  1  0  0  0  0  0  0  0  0  0
    6.8671    2.1609    0.0000 C   0  0  0  0  0  0  0  0  0  0  0  0
    4.2690   -5.3391    0.0000 C   0  0  1  0  0  0  0  0  0  0  0  0
    3.4030   -3.8391    0.0000 C   0  0  0  0  0  0  0  0  0  0  0  0
    7.7331   -5.3391    0.0000 C   0  0  2  0  0  0  0  0  0  0  0  0
    8.5991   -5.8391    0.0000 C   0  0  1  0  0  0  0  0  0  0  0  0
    9.4651   -5.3391    0.0000 C   0  0  2  0  0  0  0  0  0  0  0  0
    8.5991   -3.8391    0.0000 C   0  0  0  0  0  0  0  0  0  0  0  0
    9.4651   -4.3391    0.0000 C   0  0  1  0  0  0  0  0  0  0  0  0
   11.2546    2.6552    0.0000 H   0  0  0  0  0  0  0  0  0  0  0  0
    9.6147   -0.1746    0.0000 H   0  0  0  0  0  0  0  0  0  0  0  0
   11.6284    0.1097    0.0000 H   0  0  0  0  0  0  0  0  0  0  0  0
   12.0169    0.8071    0.0000 H   0  0  0  0  0  0  0  0  0  0  0  0
   10.1167   -0.3195    0.0000 H   0  0  0  0  0  0  0  0  0  0  0  0
   10.9150   -0.3133    0.0000 H   0  0  0  0  0  0  0  0  0  0  0  0
   13.8680    4.2112    0.0000 H   0  0  0  0  0  0  0  0  0  0  0  0
   12.7454    1.2315    0.0000 H   0  0  0  0  0  0  0  0  0  0  0  0
   13.5437    1.2253    0.0000 H   0  0  0  0  0  0  0  0  0  0  0  0
   10.3020    3.8091    0.0000 H   0  0  0  0  0  0  0  0  0  0  0  0
    9.9061    3.1173    0.0000 H   0  0  0  0  0  0  0  0  0  0  0  0
    9.0895    2.7457    0.0000 H   0  0  0  0  0  0  0  0  0  0  0  0
    8.2913    2.7580    0.0000 H   0  0  0  0  0  0  0  0  0  0  0  0
   14.0511    1.6002    0.0000 H   0  0  0  0  0  0  0  0  0  0  0  0
   11.5604    0.5668    0.0000 H   0  0  0  0  0  0  0  0  0  0  0  0
   12.4342    0.4937    0.0000 H   0  0  0  0  0  0  0  0  0  0  0  0
   12.5072    1.3675    0.0000 H   0  0  0  0  0  0  0  0  0  0  0  0
    7.1968    0.9720    0.0000 H   0  0  0  0  0  0  0  0  0  0  0  0
   11.3780    4.3507    0.0000 H   0  0  0  0  0  0  0  0  0  0  0  0
   10.2360    2.7146    0.0000 H   0  0  0  0  0  0  0  0  0  0  0  0
    9.6184    3.3370    0.0000 H   0  0  0  0  0  0  0  0  0  0  0  0
    8.9960    2.7194    0.0000 H   0  0  0  0  0  0  0  0  0  0  0  0
    7.5305    2.3304    0.0000 H   0  0  0  0  0  0  0  0  0  0  0  0
    7.1260    1.6422    0.0000 H   0  0  0  0  0  0  0  0  0  0  0  0
   12.0160    1.0814    0.0000 H   0  0  0  0  0  0  0  0  0  0  0  0
   12.8121    0.7139    0.0000 H   0  0  0  0  0  0  0  0  0  0  0  0
   13.1796    1.5100    0.0000 H   0  0  0  0  0  0  0  0  0  0  0  0
   12.8862    5.4346    0.0000 H   0  0  0  0  0  0  0  0  0  0  0  0
   12.5032    4.7342    0.0000 H   0  0  0  0  0  0  0  0  0  0  0  0
   15.2013    3.2178    0.0000 H   0  0  0  0  0  0  0  0  0  0  0  0
   15.6004    3.9091    0.0000 H   0  0  0  0  0  0  0  0  0  0  0  0
    8.6469   -1.0542    0.0000 H   0  0  0  0  0  0  0  0  0  0  0  0
    9.4956   -1.2746    0.0000 H   0  0  0  0  0  0  0  0  0  0  0  0
    9.7160   -0.4260    0.0000 H   0  0  0  0  0  0  0  0  0  0  0  0
    7.6422   -0.4419    0.0000 H   0  0  0  0  0  0  0  0  0  0  0  0
    7.8756   -1.2871    0.0000 H   0  0  0  0  0  0  0  0  0  0  0  0
    8.7208   -1.0536    0.0000 H   0  0  0  0  0  0  0  0  0  0  0  0
   15.5971    4.7819    0.0000 H   0  0  0  0  0  0  0  0  0  0  0  0
   15.1926    5.4701    0.0000 H   0  0  0  0  0  0  0  0  0  0  0  0
   14.5270    2.2923    0.0000 H   0  0  0  0  0  0  0  0  0  0  0  0
   15.3240    2.3015    0.0000 H   0  0  0  0  0  0  0  0  0  0  0  0
   14.9183    1.1002    0.0000 H   0  0  0  0  0  0  0  0  0  0  0  0
   14.0587    6.5937    0.0000 H   0  0  0  0  0  0  0  0  0  0  0  0
   13.2084    6.8075    0.0000 H   0  0  0  0  0  0  0  0  0  0  0  0
   12.9946    5.9572    0.0000 H   0  0  0  0  0  0  0  0  0  0  0  0
    6.3301   -0.5291    0.0000 H   0  0  0  0  0  0  0  0  0  0  0  0
   16.3207    2.9780    0.0000 H   0  0  0  0  0  0  0  0  0  0  0  0
    6.0010   -0.7191    0.0000 H   0  0  0  0  0  0  0  0  0  0  0  0
   15.8281    6.8479    0.0000 H   0  0  0  0  0  0  0  0  0  0  0  0
    6.0010   -2.9591    0.0000 H   0  0  0  0  0  0  0  0  0  0  0  0
    7.9451   -2.9217    0.0000 H   0  0  0  0  0  0  0  0  0  0  0  0
    8.3437   -2.2314    0.0000 H   0  0  0  0  0  0  0  0  0  0  0  0
    7.4040   -3.1491    0.0000 H   0  0  0  0  0  0  0  0  0  0  0  0
    4.5981   -0.1491    0.0000 H   0  0  0  0  0  0  0  0  0  0  0  0
    4.5981   -2.5291    0.0000 H   0  0  0  0  0  0  0  0  0  0  0  0
    3.7320    0.9709    0.0000 H   0  0  0  0  0  0  0  0  0  0  0  0
    6.5380   -4.6491    0.0000 H   0  0  0  0  0  0  0  0  0  0  0  0
    4.2690    2.2809    0.0000 H   0  0  0  0  0  0  0  0  0  0  0  0
    6.5380    1.3509    0.0000 H   0  0  0  0  0  0  0  0  0  0  0  0
    6.0010   -5.9591    0.0000 H   0  0  0  0  0  0  0  0  0  0  0  0
    4.5981    2.4709    0.0000 H   0  0  0  0  0  0  0  0  0  0  0  0
    2.8660    0.4709    0.0000 H   0  0  0  0  0  0  0  0  0  0  0  0
    4.5981   -6.1491    0.0000 H   0  0  0  0  0  0  0  0  0  0  0  0
    4.2690   -3.7191    0.0000 H   0  0  0  0  0  0  0  0  0  0  0  0
    7.0791    1.5783    0.0000 H   0  0  0  0  0  0  0  0  0  0  0  0
    7.4776    2.2686    0.0000 H   0  0  0  0  0  0  0  0  0  0  0  0
    4.2690   -5.9591    0.0000 H   0  0  0  0  0  0  0  0  0  0  0  0
    3.4030    2.7809    0.0000 H   0  0  0  0  0  0  0  0  0  0  0  0
    5.6720    3.4709    0.0000 H   0  0  0  0  0  0  0  0  0  0  0  0
    3.8015   -3.3641    0.0000 H   0  0  0  0  0  0  0  0  0  0  0  0
    3.0044   -3.3641    0.0000 H   0  0  0  0  0  0  0  0  0  0  0  0
    7.1962   -5.0291    0.0000 H   0  0  0  0  0  0  0  0  0  0  0  0
    4.5981   -7.1491    0.0000 H   0  0  0  0  0  0  0  0  0  0  0  0
    7.4040    3.4709    0.0000 H   0  0  0  0  0  0  0  0  0  0  0  0
    3.4030   -6.4591    0.0000 H   0  0  0  0  0  0  0  0  0  0  0  0
    8.0622   -6.1491    0.0000 H   0  0  0  0  0  0  0  0  0  0  0  0
    2.0000   -4.0291    0.0000 H   0  0  0  0  0  0  0  0  0  0  0  0
   10.0021   -5.0291    0.0000 H   0  0  0  0  0  0  0  0  0  0  0  0
    8.9976   -3.3641    0.0000 H   0  0  0  0  0  0  0  0  0  0  0  0
    8.2006   -3.3641    0.0000 H   0  0  0  0  0  0  0  0  0  0  0  0
    9.4651   -3.7191    0.0000 H   0  0  0  0  0  0  0  0  0  0  0  0
    8.0622   -7.1491    0.0000 H   0  0  0  0  0  0  0  0  0  0  0  0
   10.8681   -5.5291    0.0000 H   0  0  0  0  0  0  0  0  0  0  0  0
   10.3312   -3.2191    0.0000 H   0  0  0  0  0  0  0  0  0  0  0  0
 40  1  1  1  0  0  0
 54  1  1  6  0  0  0
 38  2  1  6  0  0  0
  2117  1  0  0  0  0
  3 51  1  0  0  0  0
  3122  1  0  0  0  0
  4 53  1  0  0  0  0
  4124  1  0  0  0  0
  5 54  1  0  0  0  0
  5 57  1  0  0  0  0
  6 53  2  0  0  0  0
 55  7  1  1  0  0  0
 59  7  1  1  0  0  0
 56  8  1  6  0  0  0
  8130  1  0  0  0  0
 58  9  1  6  0  0  0
 61  9  1  1  0  0  0
 10 59  1  0  0  0  0
 10 63  1  0  0  0  0
 11 61  1  0  0  0  0
 11 67  1  0  0  0  0
 60 12  1  6  0  0  0
 12137  1  0  0  0  0
 62 13  1  1  0  0  0
 13143  1  0  0  0  0
 65 14  1  6  0  0  0
 71 14  1  6  0  0  0
 64 15  1  6  0  0  0
 15144  1  0  0  0  0
 66 16  1  1  0  0  0
 16148  1  0  0  0  0
 17 68  1  0  0  0  0
 17149  1  0  0  0  0
 69 18  1  6  0  0  0
 18150  1  0  0  0  0
 19 71  1  0  0  0  0
 19 74  1  0  0  0  0
 20 70  1  0  0  0  0
 20152  1  0  0  0  0
 72 21  1  1  0  0  0
 21157  1  0  0  0  0
 73 22  1  6  0  0  0
 22158  1  0  0  0  0
 75 23  1  1  0  0  0
 23159  1  0  0  0  0
 24 25  1  0  0  0  0
 24 27  1  0  0  0  0
 24 29  1  0  0  0  0
 24 39  1  1  0  0  0
 25 26  1  0  0  0  0
 25 36  1  0  0  0  0
 25 76  1  6  0  0  0
 26 28  1  0  0  0  0
 26 37  1  0  0  0  0
 26 42  1  1  0  0  0
 27 30  1  0  0  0  0
 27 35  1  0  0  0  0
 27 44  1  6  0  0  0
 28 31  1  0  0  0  0
 28 32  1  0  0  0  0
 28 77  1  6  0  0  0
 29 31  1  0  0  0  0
 29 78  1  0  0  0  0
 29 79  1  0  0  0  0
 30 33  1  0  0  0  0
 30 41  2  0  0  0  0
 31 80  1  0  0  0  0
 31 81  1  0  0  0  0
 32 40  1  0  0  0  0
 32 48  1  0  0  0  0
 32 49  1  0  0  0  0
 33 34  1  0  0  0  0
 33 45  1  0  0  0  0
 33 82  1  1  0  0  0
 34 38  1  0  0  0  0
 34 46  1  0  0  0  0
 34 51  1  1  0  0  0
 35 38  1  0  0  0  0
 35 83  1  0  0  0  0
 35 84  1  0  0  0  0
 36 41  1  0  0  0  0
 36 85  1  0  0  0  0
 36 86  1  0  0  0  0
 37 43  1  0  0  0  0
 37 87  1  0  0  0  0
 37 88  1  0  0  0  0
 38 89  1  0  0  0  0
 39 90  1  0  0  0  0
 39 91  1  0  0  0  0
 39 92  1  0  0  0  0
 40 43  1  0  0  0  0
 40 93  1  0  0  0  0
 41 94  1  0  0  0  0
 42 95  1  0  0  0  0
 42 96  1  0  0  0  0
 42 97  1  0  0  0  0
 43 98  1  0  0  0  0
 43 99  1  0  0  0  0
 44100  1  0  0  0  0
 44101  1  0  0  0  0
 44102  1  0  0  0  0
 45 47  1  0  0  0  0
 45103  1  0  0  0  0
 45104  1  0  0  0  0
 46 50  1  0  0  0  0
 46105  1  0  0  0  0
 46106  1  0  0  0  0
 47 50  1  0  0  0  0
 47 52  1  6  0  0  0
 47 53  1  0  0  0  0
 48107  1  0  0  0  0
 48108  1  0  0  0  0
 48109  1  0  0  0  0
 49110  1  0  0  0  0
 49111  1  0  0  0  0
 49112  1  0  0  0  0
 50113  1  0  0  0  0
 50114  1  0  0  0  0
 51115  1  0  0  0  0
 51116  1  0  0  0  0
 52118  1  0  0  0  0
 52119  1  0  0  0  0
 52120  1  0  0  0  0
 54 55  1  0  0  0  0
 54121  1  0  0  0  0
 55 56  1  0  0  0  0
 55123  1  0  0  0  0
 56 58  1  0  0  0  0
 56125  1  0  0  0  0
 57 58  1  0  0  0  0
 57126  1  0  0  0  0
 57127  1  0  0  0  0
 58128  1  0  0  0  0
 59 60  1  0  0  0  0
 59129  1  0  0  0  0
 60 62  1  0  0  0  0
 60131  1  0  0  0  0
 61 65  1  0  0  0  0
 61132  1  0  0  0  0
 62 64  1  0  0  0  0
 62133  1  0  0  0  0
 63 64  1  0  0  0  0
 63 68  1  1  0  0  0
 63134  1  0  0  0  0
 64136  1  0  0  0  0
 65 66  1  0  0  0  0
 65135  1  0  0  0  0
 66 69  1  0  0  0  0
 66138  1  0  0  0  0
 67 69  1  0  0  0  0
 67 70  1  1  0  0  0
 67139  1  0  0  0  0
 68140  1  0  0  0  0
 68141  1  0  0  0  0
 69142  1  0  0  0  0
 70145  1  0  0  0  0
 70146  1  0  0  0  0
 71 72  1  0  0  0  0
 71147  1  0  0  0  0
 72 73  1  0  0  0  0
 72151  1  0  0  0  0
 73 75  1  0  0  0  0
 73153  1  0  0  0  0
 74 75  1  0  0  0  0
 74154  1  0  0  0  0
 74155  1  0  0  0  0
 75156  1  0  0  0  0
M  END
> <PUBCHEM_COMPOUND_CID>
100987880

> <PUBCHEM_COMPOUND_CANONICALIZED>
1

> <PUBCHEM_CACTVS_COMPLEXITY>
2070

> <PUBCHEM_CACTVS_HBOND_ACCEPTOR>
23

> <PUBCHEM_CACTVS_HBOND_DONOR>
14

> <PUBCHEM_CACTVS_ROTATABLE_BOND>
12

> <PUBCHEM_CACTVS_SUBSKEYS>
AAADcfB8PgAAAAAAAAAAAAAAAAAAAAAAAAA0aNGiAAAAAADAAAAAGgAACAAADxSwgAMCCAAABgCIAiDSCAAAAAAgAAAACAEAAAgREBIAAQAiQAAFgAAPAAPI6PyPgAAAAAAAAADAAAYAADAAAAAAAAAAAA==

> <PUBCHEM_IUPAC_OPENEYE_NAME>
(2S,4aS,5R,6aR,6aS,6bR,8aR,10S,12aR,14bS)-10-[(2S,3R,4S,5S)-5-[(2S,3R,4S,5S,6R)-4,5-dihydroxy-6-(hydroxymethyl)-3-[(2S,3R,4S,5R)-3,4,5-trihydroxytetrahydropyran-2-yl]oxy-tetrahydropyran-2-yl]oxy-4-hydroxy-3-[(2S,3R,4S,5S,6R)-3,4,5-trihydroxy-6-(hydroxymethyl)tetrahydropyran-2-yl]oxy-tetrahydropyran-2-yl]oxy-5-hydroxy-4a-(hydroxymethyl)-2,6a,6b,9,9,12a-hexamethyl-1,3,4,5,6,6a,7,8,8a,10,11,12,13,14b-tetradecahydropicene-2-carboxylic acid

> <PUBCHEM_IUPAC_CAS_NAME>
(2S,4aS,5R,6aR,6aS,6bR,8aR,10S,12aR,14bS)-10-[[(2S,3R,4S,5S)-5-[[(2S,3R,4S,5S,6R)-4,5-dihydroxy-6-(hydroxymethyl)-3-[[(2S,3R,4S,5R)-3,4,5-trihydroxy-2-oxanyl]oxy]-2-oxanyl]oxy]-4-hydroxy-3-[[(2S,3R,4S,5S,6R)-3,4,5-trihydroxy-6-(hydroxymethyl)-2-oxanyl]oxy]-2-oxanyl]oxy]-5-hydroxy-4a-(hydroxymethyl)-2,6a,6b,9,9,12a-hexamethyl-1,3,4,5,6,6a,7,8,8a,10,11,12,13,14b-tetradecahydropicene-2-carboxylic acid

> <PUBCHEM_IUPAC_NAME_MARKUP>
(2<I>S</I>,4<I>a</I><I>S</I>,5<I>R</I>,6<I>a</I><I>R</I>,6<I>a</I><I>S</I>,6<I>b</I><I>R</I>,8<I>a</I><I>R</I>,10<I>S</I>,12<I>a</I><I>R</I>,14<I>b</I><I>S</I>)-10-[(2<I>S</I>,3<I>R</I>,4<I>S</I>,5<I>S</I>)-5-[(2<I>S</I>,3<I>R</I>,4<I>S</I>,5<I>S</I>,6<I>R</I>)-4,5-dihydroxy-6-(hydroxymethyl)-3-[(2<I>S</I>,3<I>R</I>,4<I>S</I>,5<I>R</I>)-3,4,5-trihydroxyoxan-2-yl]oxyoxan-2-yl]oxy-4-hydroxy-3-[(2<I>S</I>,3<I>R</I>,4<I>S</I>,5<I>S</I>,6<I>R</I>)-3,4,5-trihydroxy-6-(hydroxymethyl)oxan-2-yl]oxyoxan-2-yl]oxy-5-hydroxy-4<I>a</I>-(hydroxymethyl)-2,6<I>a</I>,6<I>b</I>,9,9,12<I>a</I>-hexamethyl-1,3,4,5,6,6<I>a</I>,7,8,8<I>a</I>,10,11,12,13,14<I>b</I>-tetradecahydropicene-2-carboxylic acid

> <PUBCHEM_IUPAC_NAME>
(2S,4aS,5R,6aR,6aS,6bR,8aR,10S,12aR,14bS)-10-[(2S,3R,4S,5S)-5-[(2S,3R,4S,5S,6R)-4,5-dihydroxy-6-(hydroxymethyl)-3-[(2S,3R,4S,5R)-3,4,5-trihydroxyoxan-2-yl]oxyoxan-2-yl]oxy-4-hydroxy-3-[(2S,3R,4S,5S,6R)-3,4,5-trihydroxy-6-(hydroxymethyl)oxan-2-yl]oxyoxan-2-yl]oxy-5-hydroxy-4a-(hydroxymethyl)-2,6a,6b,9,9,12a-hexamethyl-1,3,4,5,6,6a,7,8,8a,10,11,12,13,14b-tetradecahydropicene-2-carboxylic acid

> <PUBCHEM_IUPAC_SYSTEMATIC_NAME>
(2S,4aS,5R,6aR,6aS,6bR,8aR,10S,12aR,14bS)-4a-(hydroxymethyl)-10-[(2S,3R,4S,5S)-5-[(2S,3R,4S,5S,6R)-6-(hydroxymethyl)-4,5-bis(oxidanyl)-3-[(2S,3R,4S,5R)-3,4,5-tris(oxidanyl)oxan-2-yl]oxy-oxan-2-yl]oxy-3-[(2S,3R,4S,5S,6R)-6-(hydroxymethyl)-3,4,5-tris(oxidanyl)oxan-2-yl]oxy-4-oxidanyl-oxan-2-yl]oxy-2,6a,6b,9,9,12a-hexamethyl-5-oxidanyl-1,3,4,5,6,6a,7,8,8a,10,11,12,13,14b-tetradecahydropicene-2-carboxylic acid

> <PUBCHEM_IUPAC_TRADITIONAL_NAME>
(2S,4aS,5R,6aR,6aS,6bR,8aR,10S,12aR,14bS)-10-[(2S,3R,4S,5S)-5-[(2S,3R,4S,5S,6R)-4,5-dihydroxy-6-methylol-3-[(2S,3R,4S,5R)-3,4,5-trihydroxytetrahydropyran-2-yl]oxy-tetrahydropyran-2-yl]oxy-4-hydroxy-3-[(2S,3R,4S,5S,6R)-3,4,5-trihydroxy-6-methylol-tetrahydropyran-2-yl]oxy-tetrahydropyran-2-yl]oxy-5-hydroxy-2,6a,6b,9,9,12a-hexamethyl-4a-methylol-1,3,4,5,6,6a,7,8,8a,10,11,12,13,14b-tetradecahydropicene-2-carboxylic acid

> <PUBCHEM_IUPAC_INCHI>
InChI=1S/C52H84O23/c1-47(2)28-9-12-50(5)29(8-7-22-23-15-48(3,46(66)67)13-14-52(23,21-55)30(57)16-51(22,50)6)49(28,4)11-10-31(47)73-44-40(75-43-39(65)36(62)33(59)25(17-53)70-43)35(61)27(20-69-44)72-45-41(37(63)34(60)26(18-54)71-45)74-42-38(64)32(58)24(56)19-68-42/h7,23-45,53-65H,8-21H2,1-6H3,(H,66,67)/t23-,24+,25+,26+,27-,28-,29+,30+,31-,32-,33+,34+,35-,36-,37-,38+,39+,40+,41+,42-,43-,44-,45-,48-,49-,50+,51+,52+/m0/s1

> <PUBCHEM_IUPAC_INCHIKEY>
LHHRMBWZXMNXAE-ILUNOZIDSA-N

> <PUBCHEM_XLOGP3_AA>
-1

> <PUBCHEM_EXACT_MASS>
1076.540339

> <PUBCHEM_MOLECULAR_FORMULA>
C52H84O23

> <PUBCHEM_MOLECULAR_WEIGHT>
1077.2

> <PUBCHEM_OPENEYE_CAN_SMILES>
CC1(C2CCC3(C(C2(CCC1OC4C(C(C(CO4)OC5C(C(C(C(O5)CO)O)O)OC6C(C(C(CO6)O)O)O)O)OC7C(C(C(C(O7)CO)O)O)O)C)CC=C8C3(CC(C9(C8CC(CC9)(C)C(=O)O)CO)O)C)C)C

> <PUBCHEM_OPENEYE_ISO_SMILES>
C[C@@]1(CC[C@]2([C@@H](C1)C3=CC[C@@H]4[C@]5(CC[C@@H](C([C@@H]5CC[C@]4([C@@]3(C[C@H]2O)C)C)(C)C)O[C@H]6[C@@H]([C@H]([C@H](CO6)O[C@H]7[C@@H]([C@H]([C@@H]([C@H](O7)CO)O)O)O[C@H]8[C@@H]([C@H]([C@@H](CO8)O)O)O)O)O[C@H]9[C@@H]([C@H]([C@@H]([C@H](O9)CO)O)O)O)C)CO)C(=O)O

> <PUBCHEM_CACTVS_TPSA>
374

> <PUBCHEM_MONOISOTOPIC_WEIGHT>
1076.540339

> <PUBCHEM_TOTAL_CHARGE>
0

> <PUBCHEM_HEAVY_ATOM_COUNT>
75

> <PUBCHEM_ATOM_DEF_STEREO_COUNT>
28

> <PUBCHEM_ATOM_UDEF_STEREO_COUNT>
0

> <PUBCHEM_BOND_DEF_STEREO_COUNT>
0

> <PUBCHEM_BOND_UDEF_STEREO_COUNT>
0

> <PUBCHEM_ISOTOPIC_ATOM_COUNT>
0

> <PUBCHEM_COMPONENT_COUNT>
1

> <PUBCHEM_CACTVS_TAUTO_COUNT>
-1

> <PUBCHEM_COORDINATE_TYPE>
1
5
255

> <PUBCHEM_BONDANNOTATIONS>
40  1  5
54  1  6
60  12  6
62  13  5
65  14  6
71  14  6
64  15  6
66  16  5
69  18  6
38  2  6
72  21  5
73  22  6
75  23  5
24  39  5
25  76  6
26  42  5
27  44  6
28  77  6
33  82  5
34  51  5
47  52  6
63  68  5
67  70  5
55  7  5
59  7  5
56  8  6
58  9  6
61  9  5

$$$$
