10260582
  -OEChem-09092001192D

163172  0     1  0  0  0  0  0999 V2000
   12.9046    3.0932    0.0000 O   0  0  0  0  0  0  0  0  0  0  0  0
   15.0324    1.9850    0.0000 O   0  0  0  0  0  0  0  0  0  0  0  0
    6.8671    0.3495    0.0000 O   0  0  0  0  0  0  0  0  0  0  0  0
   15.6961    6.4236    0.0000 O   0  0  0  0  0  0  0  0  0  0  0  0
    7.7331   -1.1505    0.0000 O   0  0  0  0  0  0  0  0  0  0  0  0
    5.1350   -0.6505    0.0000 O   0  0  0  0  0  0  0  0  0  0  0  0
    5.1350   -2.6505    0.0000 O   0  0  0  0  0  0  0  0  0  0  0  0
    6.8671   -3.6505    0.0000 O   0  0  0  0  0  0  0  0  0  0  0  0
    6.0010    0.8495    0.0000 O   0  0  0  0  0  0  0  0  0  0  0  0
    3.4030    0.3495    0.0000 O   0  0  0  0  0  0  0  0  0  0  0  0
    5.1350   -3.6505    0.0000 O   0  0  0  0  0  0  0  0  0  0  0  0
    3.4030    2.3495    0.0000 O   0  0  0  0  0  0  0  0  0  0  0  0
    6.8671   -5.6505    0.0000 O   0  0  0  0  0  0  0  0  0  0  0  0
    5.1350    3.3495    0.0000 O   0  0  0  0  0  0  0  0  0  0  0  0
    5.1350   -6.6505    0.0000 O   0  0  0  0  0  0  0  0  0  0  0  0
    6.8671    3.3495    0.0000 O   0  0  0  0  0  0  0  0  0  0  0  0
    3.4030   -5.6505    0.0000 O   0  0  0  0  0  0  0  0  0  0  0  0
    7.7331   -4.1505    0.0000 O   0  0  0  0  0  0  0  0  0  0  0  0
    2.5369   -4.1505    0.0000 O   0  0  0  0  0  0  0  0  0  0  0  0
    8.5991   -6.6505    0.0000 O   0  0  0  0  0  0  0  0  0  0  0  0
   10.3312   -5.6505    0.0000 O   0  0  0  0  0  0  0  0  0  0  0  0
   10.3312   -3.6505    0.0000 O   0  0  0  0  0  0  0  0  0  0  0  0
   12.4363    2.4950    0.0000 C   0  0  2  0  0  0  0  0  0  0  0  0
   12.4401    3.4950    0.0000 C   0  0  2  0  0  0  0  0  0  0  0  0
   11.5403    1.9638    0.0000 C   0  0  1  0  0  0  0  0  0  0  0  0
   13.3081    3.9917    0.0000 C   0  0  1  0  0  0  0  0  0  0  0  0
   14.1722    3.4883    0.0000 C   0  0  2  0  0  0  0  0  0  0  0  0
   10.6362    2.4812    0.0000 C   0  0  1  0  0  0  0  0  0  0  0  0
    9.6903    1.9496    0.0000 C   0  0  2  0  0  0  0  0  0  0  0  0
   13.3004    1.9917    0.0000 C   0  0  0  0  0  0  0  0  0  0  0  0
   11.5482    4.0331    0.0000 C   0  0  0  0  0  0  0  0  0  0  0  0
   14.1683    2.4884    0.0000 C   0  0  1  0  0  0  0  0  0  0  0  0
   10.6402    3.5228    0.0000 C   0  0  0  0  0  0  0  0  0  0  0  0
    9.6862    0.8646    0.0000 C   0  0  1  0  0  0  0  0  0  0  0  0
   11.5612    0.8790    0.0000 C   0  0  0  0  0  0  0  0  0  0  0  0
   13.7046    3.0901    0.0000 C   0  0  0  0  0  0  0  0  0  0  0  0
   13.2960    5.0332    0.0000 C   0  0  0  0  0  0  0  0  0  0  0  0
   15.0841    3.9917    0.0000 C   0  0  0  0  0  0  0  0  0  0  0  0
   10.6279    0.3257    0.0000 C   0  0  0  0  0  0  0  0  0  0  0  0
   12.7748    1.5541    0.0000 C   0  0  0  0  0  0  0  0  0  0  0  0
   12.1860    1.2002    0.0000 C   0  0  0  0  0  0  0  0  0  0  0  0
   14.1961    5.5575    0.0000 C   0  0  2  0  0  0  0  0  0  0  0  0
    8.7140    0.2882    0.0000 C   0  0  0  0  0  0  0  0  0  0  0  0
    8.7227    2.5334    0.0000 C   0  0  0  0  0  0  0  0  0  0  0  0
   15.0961    5.0332    0.0000 C   0  0  0  0  0  0  0  0  0  0  0  0
    9.6942    2.9496    0.0000 C   0  0  0  0  0  0  0  0  0  0  0  0
    7.7331    0.8495    0.0000 C   0  0  2  0  0  0  0  0  0  0  0  0
    7.7374    1.9797    0.0000 C   0  0  0  0  0  0  0  0  0  0  0  0
   14.6961    6.4236    0.0000 C   0  0  0  0  0  0  0  0  0  0  0  0
   13.6961    6.4236    0.0000 C   0  0  0  0  0  0  0  0  0  0  0  0
    9.2207   -0.5739    0.0000 C   0  0  0  0  0  0  0  0  0  0  0  0
    8.2207   -0.5816    0.0000 C   0  0  0  0  0  0  0  0  0  0  0  0
    6.8671   -0.6505    0.0000 C   0  0  2  0  0  0  0  0  0  0  0  0
    6.0010   -1.1505    0.0000 C   0  0  1  0  0  0  0  0  0  0  0  0
    6.0010   -2.1505    0.0000 C   0  0  2  0  0  0  0  0  0  0  0  0
    7.7331   -2.1505    0.0000 C   0  0  0  0  0  0  0  0  0  0  0  0
    6.8671   -2.6505    0.0000 C   0  0  2  0  0  0  0  0  0  0  0  0
    5.1350    0.3495    0.0000 C   0  0  2  0  0  0  0  0  0  0  0  0
    4.2690    0.8495    0.0000 C   0  0  1  0  0  0  0  0  0  0  0  0
    6.0010   -4.1505    0.0000 C   0  0  2  0  0  0  0  0  0  0  0  0
    4.2690    1.8495    0.0000 C   0  0  2  0  0  0  0  0  0  0  0  0
    6.0010    1.8495    0.0000 C   0  0  1  0  0  0  0  0  0  0  0  0
    5.1350    2.3495    0.0000 C   0  0  1  0  0  0  0  0  0  0  0  0
    6.0010   -5.1505    0.0000 C   0  0  1  0  0  0  0  0  0  0  0  0
    5.1350   -5.6505    0.0000 C   0  0  2  0  0  0  0  0  0  0  0  0
    6.8671    2.3495    0.0000 C   0  0  0  0  0  0  0  0  0  0  0  0
    4.2690   -4.1505    0.0000 C   0  0  1  0  0  0  0  0  0  0  0  0
    4.2690   -5.1505    0.0000 C   0  0  1  0  0  0  0  0  0  0  0  0
    3.4030   -3.6505    0.0000 C   0  0  0  0  0  0  0  0  0  0  0  0
    7.7331   -5.1505    0.0000 C   0  0  2  0  0  0  0  0  0  0  0  0
    8.5991   -5.6505    0.0000 C   0  0  1  0  0  0  0  0  0  0  0  0
    9.4651   -5.1505    0.0000 C   0  0  1  0  0  0  0  0  0  0  0  0
    8.5991   -3.6505    0.0000 C   0  0  2  0  0  0  0  0  0  0  0  0
    9.4651   -4.1505    0.0000 C   0  0  2  0  0  0  0  0  0  0  0  0
    8.5991   -2.6505    0.0000 C   0  0  0  0  0  0  0  0  0  0  0  0
   12.5736    4.4195    0.0000 H   0  0  0  0  0  0  0  0  0  0  0  0
   11.3723    2.9061    0.0000 H   0  0  0  0  0  0  0  0  0  0  0  0
   12.9000    1.5183    0.0000 H   0  0  0  0  0  0  0  0  0  0  0  0
   13.6970    1.5152    0.0000 H   0  0  0  0  0  0  0  0  0  0  0  0
   11.9546    4.5014    0.0000 H   0  0  0  0  0  0  0  0  0  0  0  0
   11.1565    4.5137    0.0000 H   0  0  0  0  0  0  0  0  0  0  0  0
   14.1659    1.8684    0.0000 H   0  0  0  0  0  0  0  0  0  0  0  0
   10.4334    4.1073    0.0000 H   0  0  0  0  0  0  0  0  0  0  0  0
   10.0289    3.4190    0.0000 H   0  0  0  0  0  0  0  0  0  0  0  0
    9.6927    0.0146    0.0000 H   0  0  0  0  0  0  0  0  0  0  0  0
   11.7814    0.2995    0.0000 H   0  0  0  0  0  0  0  0  0  0  0  0
   12.1699    0.9969    0.0000 H   0  0  0  0  0  0  0  0  0  0  0  0
   13.5267    2.4962    0.0000 H   0  0  0  0  0  0  0  0  0  0  0  0
   14.2238    2.7513    0.0000 H   0  0  0  0  0  0  0  0  0  0  0  0
   13.0802    5.6145    0.0000 H   0  0  0  0  0  0  0  0  0  0  0  0
   12.6864    4.9201    0.0000 H   0  0  0  0  0  0  0  0  0  0  0  0
   15.2864    3.4056    0.0000 H   0  0  0  0  0  0  0  0  0  0  0  0
   15.6961    4.0907    0.0000 H   0  0  0  0  0  0  0  0  0  0  0  0
   10.2324   -0.1518    0.0000 H   0  0  0  0  0  0  0  0  0  0  0  0
   11.0307   -0.1456    0.0000 H   0  0  0  0  0  0  0  0  0  0  0  0
   12.1913    1.3442    0.0000 H   0  0  0  0  0  0  0  0  0  0  0  0
   12.9846    0.9707    0.0000 H   0  0  0  0  0  0  0  0  0  0  0  0
   13.3582    1.7639    0.0000 H   0  0  0  0  0  0  0  0  0  0  0  0
   11.7126    0.7999    0.0000 H   0  0  0  0  0  0  0  0  0  0  0  0
   12.5864    0.7268    0.0000 H   0  0  0  0  0  0  0  0  0  0  0  0
   12.6594    1.6006    0.0000 H   0  0  0  0  0  0  0  0  0  0  0  0
    9.1291    3.0016    0.0000 H   0  0  0  0  0  0  0  0  0  0  0  0
    8.3309    3.0139    0.0000 H   0  0  0  0  0  0  0  0  0  0  0  0
   15.7057    4.9201    0.0000 H   0  0  0  0  0  0  0  0  0  0  0  0
   15.3119    5.6145    0.0000 H   0  0  0  0  0  0  0  0  0  0  0  0
   10.3142    2.9472    0.0000 H   0  0  0  0  0  0  0  0  0  0  0  0
    9.6966    3.5695    0.0000 H   0  0  0  0  0  0  0  0  0  0  0  0
    9.0742    2.9519    0.0000 H   0  0  0  0  0  0  0  0  0  0  0  0
    7.1968    1.1606    0.0000 H   0  0  0  0  0  0  0  0  0  0  0  0
    7.5306    2.5642    0.0000 H   0  0  0  0  0  0  0  0  0  0  0  0
    7.1262    1.8759    0.0000 H   0  0  0  0  0  0  0  0  0  0  0  0
   15.0300    1.3650    0.0000 H   0  0  0  0  0  0  0  0  0  0  0  0
   14.8037    7.0341    0.0000 H   0  0  0  0  0  0  0  0  0  0  0  0
   14.1135    6.6356    0.0000 H   0  0  0  0  0  0  0  0  0  0  0  0
   14.2330    6.7336    0.0000 H   0  0  0  0  0  0  0  0  0  0  0  0
   13.3861    6.9605    0.0000 H   0  0  0  0  0  0  0  0  0  0  0  0
   13.1591    6.1136    0.0000 H   0  0  0  0  0  0  0  0  0  0  0  0
    8.6861   -0.8881    0.0000 H   0  0  0  0  0  0  0  0  0  0  0  0
    9.5348   -1.1085    0.0000 H   0  0  0  0  0  0  0  0  0  0  0  0
    9.7552   -0.2598    0.0000 H   0  0  0  0  0  0  0  0  0  0  0  0
    7.6814   -0.2758    0.0000 H   0  0  0  0  0  0  0  0  0  0  0  0
    7.9148   -1.1210    0.0000 H   0  0  0  0  0  0  0  0  0  0  0  0
    8.7600   -0.8875    0.0000 H   0  0  0  0  0  0  0  0  0  0  0  0
   16.0061    6.9605    0.0000 H   0  0  0  0  0  0  0  0  0  0  0  0
    6.3301   -0.3405    0.0000 H   0  0  0  0  0  0  0  0  0  0  0  0
    6.0010   -0.5305    0.0000 H   0  0  0  0  0  0  0  0  0  0  0  0
    6.0010   -2.7705    0.0000 H   0  0  0  0  0  0  0  0  0  0  0  0
    7.9451   -2.7331    0.0000 H   0  0  0  0  0  0  0  0  0  0  0  0
    8.3437   -2.0428    0.0000 H   0  0  0  0  0  0  0  0  0  0  0  0
    7.4040   -2.9605    0.0000 H   0  0  0  0  0  0  0  0  0  0  0  0
    4.5981    0.0395    0.0000 H   0  0  0  0  0  0  0  0  0  0  0  0
    4.5981   -2.3405    0.0000 H   0  0  0  0  0  0  0  0  0  0  0  0
    3.7320    1.1595    0.0000 H   0  0  0  0  0  0  0  0  0  0  0  0
    6.0010   -3.5305    0.0000 H   0  0  0  0  0  0  0  0  0  0  0  0
    4.2690    2.4695    0.0000 H   0  0  0  0  0  0  0  0  0  0  0  0
    6.5380    1.5395    0.0000 H   0  0  0  0  0  0  0  0  0  0  0  0
    5.6720    2.6595    0.0000 H   0  0  0  0  0  0  0  0  0  0  0  0
    6.5380   -4.8405    0.0000 H   0  0  0  0  0  0  0  0  0  0  0  0
    2.8660    0.6595    0.0000 H   0  0  0  0  0  0  0  0  0  0  0  0
    5.6720   -5.9605    0.0000 H   0  0  0  0  0  0  0  0  0  0  0  0
    4.2690   -3.5305    0.0000 H   0  0  0  0  0  0  0  0  0  0  0  0
    7.0791    1.7669    0.0000 H   0  0  0  0  0  0  0  0  0  0  0  0
    7.4776    2.4572    0.0000 H   0  0  0  0  0  0  0  0  0  0  0  0
    3.7320   -4.8405    0.0000 H   0  0  0  0  0  0  0  0  0  0  0  0
    3.4030    2.9695    0.0000 H   0  0  0  0  0  0  0  0  0  0  0  0
    5.6720    3.6595    0.0000 H   0  0  0  0  0  0  0  0  0  0  0  0
    3.8015   -3.1755    0.0000 H   0  0  0  0  0  0  0  0  0  0  0  0
    3.0044   -3.1755    0.0000 H   0  0  0  0  0  0  0  0  0  0  0  0
    7.1962   -4.8405    0.0000 H   0  0  0  0  0  0  0  0  0  0  0  0
    4.5981   -6.9605    0.0000 H   0  0  0  0  0  0  0  0  0  0  0  0
    7.4040    3.6595    0.0000 H   0  0  0  0  0  0  0  0  0  0  0  0
    3.4030   -6.2705    0.0000 H   0  0  0  0  0  0  0  0  0  0  0  0
    8.0622   -5.9605    0.0000 H   0  0  0  0  0  0  0  0  0  0  0  0
    2.0000   -3.8405    0.0000 H   0  0  0  0  0  0  0  0  0  0  0  0
    9.4651   -5.7705    0.0000 H   0  0  0  0  0  0  0  0  0  0  0  0
    8.0622   -3.3405    0.0000 H   0  0  0  0  0  0  0  0  0  0  0  0
   10.0021   -4.4605    0.0000 H   0  0  0  0  0  0  0  0  0  0  0  0
    9.1360   -6.9605    0.0000 H   0  0  0  0  0  0  0  0  0  0  0  0
    9.2191   -2.6505    0.0000 H   0  0  0  0  0  0  0  0  0  0  0  0
    8.5991   -2.0305    0.0000 H   0  0  0  0  0  0  0  0  0  0  0  0
    7.9791   -2.6505    0.0000 H   0  0  0  0  0  0  0  0  0  0  0  0
   10.8681   -5.3405    0.0000 H   0  0  0  0  0  0  0  0  0  0  0  0
   10.8681   -3.9605    0.0000 H   0  0  0  0  0  0  0  0  0  0  0  0
  1 24  1  0  0  0  0
  1 36  1  0  0  0  0
 32  2  1  6  0  0  0
  2112  1  0  0  0  0
 47  3  1  1  0  0  0
 53  3  1  6  0  0  0
  4 49  1  0  0  0  0
  4124  1  0  0  0  0
  5 53  1  0  0  0  0
  5 56  1  0  0  0  0
 54  6  1  1  0  0  0
 58  6  1  1  0  0  0
 55  7  1  6  0  0  0
  7132  1  0  0  0  0
 57  8  1  6  0  0  0
 60  8  1  1  0  0  0
  9 58  1  0  0  0  0
  9 62  1  0  0  0  0
 59 10  1  6  0  0  0
 10139  1  0  0  0  0
 11 60  1  0  0  0  0
 11 67  1  0  0  0  0
 61 12  1  1  0  0  0
 12145  1  0  0  0  0
 64 13  1  6  0  0  0
 70 13  1  6  0  0  0
 63 14  1  6  0  0  0
 14146  1  0  0  0  0
 65 15  1  1  0  0  0
 15150  1  0  0  0  0
 16 66  1  0  0  0  0
 16151  1  0  0  0  0
 68 17  1  6  0  0  0
 17152  1  0  0  0  0
 18 70  1  0  0  0  0
 18 73  1  0  0  0  0
 19 69  1  0  0  0  0
 19154  1  0  0  0  0
 71 20  1  1  0  0  0
 20158  1  0  0  0  0
 72 21  1  1  0  0  0
 21162  1  0  0  0  0
 74 22  1  6  0  0  0
 22163  1  0  0  0  0
 23 24  1  0  0  0  0
 23 25  1  0  0  0  0
 23 30  1  0  0  0  0
 23 40  1  6  0  0  0
 24 26  1  0  0  0  0
 24 31  1  1  0  0  0
 25 28  1  0  0  0  0
 25 35  1  0  0  0  0
 25 41  1  1  0  0  0
 26 27  1  0  0  0  0
 26 37  1  0  0  0  0
 26 76  1  1  0  0  0
 27 32  1  0  0  0  0
 27 36  1  0  0  0  0
 27 38  1  1  0  0  0
 28 29  1  0  0  0  0
 28 33  1  0  0  0  0
 28 77  1  6  0  0  0
 29 34  1  0  0  0  0
 29 44  1  0  0  0  0
 29 46  1  1  0  0  0
 30 32  1  0  0  0  0
 30 78  1  0  0  0  0
 30 79  1  0  0  0  0
 31 33  1  0  0  0  0
 31 80  1  0  0  0  0
 31 81  1  0  0  0  0
 32 82  1  0  0  0  0
 33 83  1  0  0  0  0
 33 84  1  0  0  0  0
 34 39  1  0  0  0  0
 34 43  1  0  0  0  0
 34 85  1  6  0  0  0
 35 39  1  0  0  0  0
 35 86  1  0  0  0  0
 35 87  1  0  0  0  0
 36 88  1  0  0  0  0
 36 89  1  0  0  0  0
 37 42  1  0  0  0  0
 37 90  1  0  0  0  0
 37 91  1  0  0  0  0
 38 45  1  0  0  0  0
 38 92  1  0  0  0  0
 38 93  1  0  0  0  0
 39 94  1  0  0  0  0
 39 95  1  0  0  0  0
 40 96  1  0  0  0  0
 40 97  1  0  0  0  0
 40 98  1  0  0  0  0
 41 99  1  0  0  0  0
 41100  1  0  0  0  0
 41101  1  0  0  0  0
 42 45  1  0  0  0  0
 42 49  1  0  0  0  0
 42 50  1  6  0  0  0
 43 47  1  0  0  0  0
 43 51  1  0  0  0  0
 43 52  1  0  0  0  0
 44 48  1  0  0  0  0
 44102  1  0  0  0  0
 44103  1  0  0  0  0
 45104  1  0  0  0  0
 45105  1  0  0  0  0
 46106  1  0  0  0  0
 46107  1  0  0  0  0
 46108  1  0  0  0  0
 47 48  1  0  0  0  0
 47109  1  0  0  0  0
 48110  1  0  0  0  0
 48111  1  0  0  0  0
 49113  1  0  0  0  0
 49114  1  0  0  0  0
 50115  1  0  0  0  0
 50116  1  0  0  0  0
 50117  1  0  0  0  0
 51118  1  0  0  0  0
 51119  1  0  0  0  0
 51120  1  0  0  0  0
 52121  1  0  0  0  0
 52122  1  0  0  0  0
 52123  1  0  0  0  0
 53 54  1  0  0  0  0
 53125  1  0  0  0  0
 54 55  1  0  0  0  0
 54126  1  0  0  0  0
 55 57  1  0  0  0  0
 55127  1  0  0  0  0
 56 57  1  0  0  0  0
 56128  1  0  0  0  0
 56129  1  0  0  0  0
 57130  1  0  0  0  0
 58 59  1  0  0  0  0
 58131  1  0  0  0  0
 59 61  1  0  0  0  0
 59133  1  0  0  0  0
 60 64  1  0  0  0  0
 60134  1  0  0  0  0
 61 63  1  0  0  0  0
 61135  1  0  0  0  0
 62 63  1  0  0  0  0
 62 66  1  1  0  0  0
 62136  1  0  0  0  0
 63137  1  0  0  0  0
 64 65  1  0  0  0  0
 64138  1  0  0  0  0
 65 68  1  0  0  0  0
 65140  1  0  0  0  0
 66142  1  0  0  0  0
 66143  1  0  0  0  0
 67 68  1  0  0  0  0
 67 69  1  1  0  0  0
 67141  1  0  0  0  0
 68144  1  0  0  0  0
 69147  1  0  0  0  0
 69148  1  0  0  0  0
 70 71  1  0  0  0  0
 70149  1  0  0  0  0
 71 72  1  0  0  0  0
 71153  1  0  0  0  0
 72 74  1  0  0  0  0
 72155  1  0  0  0  0
 73 74  1  0  0  0  0
 73 75  1  1  0  0  0
 73156  1  0  0  0  0
 74157  1  0  0  0  0
 75159  1  0  0  0  0
 75160  1  0  0  0  0
 75161  1  0  0  0  0
M  END
> <PUBCHEM_COMPOUND_CID>
10260582

> <PUBCHEM_COMPOUND_CANONICALIZED>
1

> <PUBCHEM_CACTVS_COMPLEXITY>
2020

> <PUBCHEM_CACTVS_HBOND_ACCEPTOR>
22

> <PUBCHEM_CACTVS_HBOND_DONOR>
13

> <PUBCHEM_CACTVS_ROTATABLE_BOND>
11

> <PUBCHEM_CACTVS_SUBSKEYS>
AAADcfB8PgAAAAAAAAAAAAAAAAAAASAAAAA0aNGjBIAAAEjAAAAAGgAACAAAD1SwgAMCCAAABgAAAAAAAAAAAAAAAAAAAAAAAAAREAIAAAAiQAAFAAAHAAHA4PwPgAAAAAAAAADCAAYAADAAAAAAAAAAAA==

> <PUBCHEM_IUPAC_OPENEYE_NAME>
(2S,3R,4R,5R,6S)-2-[(2S,3R,4S,5S,6R)-4,5-dihydroxy-2-[(3S,4S,5R,6S)-4-hydroxy-6-[[(1S,2R,4S,5R,8R,10S,13R,14R,17S,18R,20S)-2-hydroxy-20-(hydroxymethyl)-4,5,9,9,13,20-hexamethyl-24-oxahexacyclo[15.5.2.01,18.04,17.05,14.08,13]tetracosan-10-yl]oxy]-5-[(2S,3R,4S,5S,6R)-3,4,5-trihydroxy-6-(hydroxymethyl)tetrahydropyran-2-yl]oxy-tetrahydropyran-3-yl]oxy-6-(hydroxymethyl)tetrahydropyran-3-yl]oxy-6-methyl-tetrahydropyran-3,4,5-triol

> <PUBCHEM_IUPAC_CAS_NAME>
(2S,3R,4R,5R,6S)-2-[[(2S,3R,4S,5S,6R)-4,5-dihydroxy-2-[[(3S,4S,5R,6S)-4-hydroxy-6-[[(1S,2R,4S,5R,8R,10S,13R,14R,17S,18R,20S)-2-hydroxy-20-(hydroxymethyl)-4,5,9,9,13,20-hexamethyl-24-oxahexacyclo[15.5.2.01,18.04,17.05,14.08,13]tetracosan-10-yl]oxy]-5-[[(2S,3R,4S,5S,6R)-3,4,5-trihydroxy-6-(hydroxymethyl)-2-oxanyl]oxy]-3-oxanyl]oxy]-6-(hydroxymethyl)-3-oxanyl]oxy]-6-methyloxane-3,4,5-triol

> <PUBCHEM_IUPAC_NAME_MARKUP>
(2<I>S</I>,3<I>R</I>,4<I>R</I>,5<I>R</I>,6<I>S</I>)-2-[(2<I>S</I>,3<I>R</I>,4<I>S</I>,5<I>S</I>,6<I>R</I>)-4,5-dihydroxy-2-[(3<I>S</I>,4<I>S</I>,5<I>R</I>,6<I>S</I>)-4-hydroxy-6-[[(1<I>S</I>,2<I>R</I>,4<I>S</I>,5<I>R</I>,8<I>R</I>,10<I>S</I>,13<I>R</I>,14<I>R</I>,17<I>S</I>,18<I>R</I>,20<I>S</I>)-2-hydroxy-20-(hydroxymethyl)-4,5,9,9,13,20-hexamethyl-24-oxahexacyclo[15.5.2.0<SUP>1,18</SUP>.0<SUP>4,17</SUP>.0<SUP>5,14</SUP>.0<SUP>8,13</SUP>]tetracosan-10-yl]oxy]-5-[(2<I>S</I>,3<I>R</I>,4<I>S</I>,5<I>S</I>,6<I>R</I>)-3,4,5-trihydroxy-6-(hydroxymethyl)oxan-2-yl]oxyoxan-3-yl]oxy-6-(hydroxymethyl)oxan-3-yl]oxy-6-methyloxane-3,4,5-triol

> <PUBCHEM_IUPAC_NAME>
(2S,3R,4R,5R,6S)-2-[(2S,3R,4S,5S,6R)-4,5-dihydroxy-2-[(3S,4S,5R,6S)-4-hydroxy-6-[[(1S,2R,4S,5R,8R,10S,13R,14R,17S,18R,20S)-2-hydroxy-20-(hydroxymethyl)-4,5,9,9,13,20-hexamethyl-24-oxahexacyclo[15.5.2.01,18.04,17.05,14.08,13]tetracosan-10-yl]oxy]-5-[(2S,3R,4S,5S,6R)-3,4,5-trihydroxy-6-(hydroxymethyl)oxan-2-yl]oxyoxan-3-yl]oxy-6-(hydroxymethyl)oxan-3-yl]oxy-6-methyloxane-3,4,5-triol

> <PUBCHEM_IUPAC_SYSTEMATIC_NAME>
(2S,3R,4R,5R,6S)-2-[(2S,3R,4S,5S,6R)-6-(hydroxymethyl)-2-[(3S,4S,5R,6S)-6-[[(1S,2R,4S,5R,8R,10S,13R,14R,17S,18R,20S)-20-(hydroxymethyl)-4,5,9,9,13,20-hexamethyl-2-oxidanyl-24-oxahexacyclo[15.5.2.01,18.04,17.05,14.08,13]tetracosan-10-yl]oxy]-5-[(2S,3R,4S,5S,6R)-6-(hydroxymethyl)-3,4,5-tris(oxidanyl)oxan-2-yl]oxy-4-oxidanyl-oxan-3-yl]oxy-4,5-bis(oxidanyl)oxan-3-yl]oxy-6-methyl-oxane-3,4,5-triol

> <PUBCHEM_IUPAC_TRADITIONAL_NAME>
(2S,3R,4R,5R,6S)-2-[(2S,3R,4S,5S,6R)-4,5-dihydroxy-2-[(3S,4S,5R,6S)-4-hydroxy-6-[[(1S,2R,4S,5R,8R,10S,13R,14R,17S,18R,20S)-2-hydroxy-4,5,9,9,13,20-hexamethyl-20-methylol-24-oxahexacyclo[15.5.2.01,18.04,17.05,14.08,13]tetracosan-10-yl]oxy]-5-[(2S,3R,4S,5S,6R)-3,4,5-trihydroxy-6-methylol-tetrahydropyran-2-yl]oxy-tetrahydropyran-3-yl]oxy-6-methylol-tetrahydropyran-3-yl]oxy-6-methyl-tetrahydropyran-3,4,5-triol

> <PUBCHEM_IUPAC_INCHI>
InChI=1S/C53H88O22/c1-23-32(58)36(62)39(65)43(69-23)75-42-38(64)34(60)25(19-55)71-46(42)72-26-20-67-45(41(35(26)61)74-44-40(66)37(63)33(59)24(18-54)70-44)73-31-10-11-49(5)27(47(31,2)3)8-12-50(6)28(49)9-13-53-29-16-48(4,21-56)14-15-52(29,22-68-53)30(57)17-51(50,53)7/h23-46,54-66H,8-22H2,1-7H3/t23-,24+,25+,26-,27-,28+,29+,30+,31-,32-,33+,34+,35-,36+,37-,38-,39+,40+,41+,42+,43-,44-,45-,46-,48-,49-,50+,51-,52+,53-/m0/s1

> <PUBCHEM_IUPAC_INCHIKEY>
LTTSWSWZQNISIB-LLEYBADXSA-N

> <PUBCHEM_XLOGP3_AA>
-0.5

> <PUBCHEM_EXACT_MASS>
1076.576724

> <PUBCHEM_MOLECULAR_FORMULA>
C53H88O22

> <PUBCHEM_MOLECULAR_WEIGHT>
1077.3

> <PUBCHEM_OPENEYE_CAN_SMILES>
CC1C(C(C(C(O1)OC2C(C(C(OC2OC3COC(C(C3O)OC4C(C(C(C(O4)CO)O)O)O)OC5CCC6(C(C5(C)C)CCC7(C6CCC89C7(CC(C1(C8CC(CC1)(C)CO)CO9)O)C)C)C)CO)O)O)O)O)O

> <PUBCHEM_OPENEYE_ISO_SMILES>
C[C@H]1[C@@H]([C@H]([C@H]([C@@H](O1)O[C@@H]2[C@H]([C@@H]([C@H](O[C@H]2O[C@H]3CO[C@H]([C@@H]([C@H]3O)O[C@H]4[C@@H]([C@H]([C@@H]([C@H](O4)CO)O)O)O)O[C@H]5CC[C@@]6([C@H]7CC[C@@]89[C@@H]1C[C@@](CC[C@]1(CO8)[C@@H](C[C@]9([C@@]7(CC[C@H]6C5(C)C)C)C)O)(C)CO)C)CO)O)O)O)O)O

> <PUBCHEM_CACTVS_TPSA>
346

> <PUBCHEM_MONOISOTOPIC_WEIGHT>
1076.576724

> <PUBCHEM_TOTAL_CHARGE>
0

> <PUBCHEM_HEAVY_ATOM_COUNT>
75

> <PUBCHEM_ATOM_DEF_STEREO_COUNT>
30

> <PUBCHEM_ATOM_UDEF_STEREO_COUNT>
0

> <PUBCHEM_BOND_DEF_STEREO_COUNT>
0

> <PUBCHEM_BOND_UDEF_STEREO_COUNT>
0

> <PUBCHEM_ISOTOPIC_ATOM_COUNT>
0

> <PUBCHEM_COMPONENT_COUNT>
1

> <PUBCHEM_CACTVS_TAUTO_COUNT>
-1

> <PUBCHEM_COORDINATE_TYPE>
1
5
255

> <PUBCHEM_BONDANNOTATIONS>
59  10  6
61  12  5
64  13  6
70  13  6
63  14  6
65  15  5
68  17  6
32  2  6
71  20  5
72  21  5
74  22  6
23  40  6
24  31  5
25  41  5
26  76  5
27  38  5
28  77  6
29  46  5
47  3  5
53  3  6
34  85  6
42  50  6
54  6  5
58  6  5
62  66  5
67  69  5
55  7  6
73  75  5
57  8  6
60  8  5

$$$$
