52918164
  -OEChem-09092001462D

167176  0     1  0  0  0  0  0999 V2000
   12.9046    2.4957    0.0000 O   0  0  0  0  0  0  0  0  0  0  0  0
   15.0324    1.3875    0.0000 O   0  0  0  0  0  0  0  0  0  0  0  0
    6.8671   -0.2480    0.0000 O   0  0  0  0  0  0  0  0  0  0  0  0
   15.6961    5.8260    0.0000 O   0  0  0  0  0  0  0  0  0  0  0  0
   14.1961    6.6920    0.0000 O   0  0  0  0  0  0  0  0  0  0  0  0
    7.7331   -1.7480    0.0000 O   0  0  0  0  0  0  0  0  0  0  0  0
    5.1350   -1.2481    0.0000 O   0  0  0  0  0  0  0  0  0  0  0  0
    5.1350   -3.2480    0.0000 O   0  0  0  0  0  0  0  0  0  0  0  0
    6.8671   -4.2480    0.0000 O   0  0  0  0  0  0  0  0  0  0  0  0
    6.0010    0.2520    0.0000 O   0  0  0  0  0  0  0  0  0  0  0  0
    3.4030   -0.2480    0.0000 O   0  0  0  0  0  0  0  0  0  0  0  0
    5.1350   -4.2480    0.0000 O   0  0  0  0  0  0  0  0  0  0  0  0
    3.4030    1.7520    0.0000 O   0  0  0  0  0  0  0  0  0  0  0  0
    6.8671   -6.2480    0.0000 O   0  0  0  0  0  0  0  0  0  0  0  0
    5.1350    2.7520    0.0000 O   0  0  0  0  0  0  0  0  0  0  0  0
    5.1350   -7.2480    0.0000 O   0  0  0  0  0  0  0  0  0  0  0  0
    6.8671    2.7520    0.0000 O   0  0  0  0  0  0  0  0  0  0  0  0
    3.4030   -6.2480    0.0000 O   0  0  0  0  0  0  0  0  0  0  0  0
    2.5369   -4.7480    0.0000 O   0  0  0  0  0  0  0  0  0  0  0  0
    7.7331   -4.7480    0.0000 O   0  0  0  0  0  0  0  0  0  0  0  0
    8.5991   -7.2480    0.0000 O   0  0  0  0  0  0  0  0  0  0  0  0
   10.3312   -6.2480    0.0000 O   0  0  0  0  0  0  0  0  0  0  0  0
   10.3312   -4.2480    0.0000 O   0  0  0  0  0  0  0  0  0  0  0  0
   12.4363    1.8975    0.0000 C   0  0  2  0  0  0  0  0  0  0  0  0
   12.4401    2.8975    0.0000 C   0  0  2  0  0  0  0  0  0  0  0  0
   11.5403    1.3663    0.0000 C   0  0  1  0  0  0  0  0  0  0  0  0
   13.3081    3.3941    0.0000 C   0  0  1  0  0  0  0  0  0  0  0  0
   14.1722    2.8908    0.0000 C   0  0  2  0  0  0  0  0  0  0  0  0
   10.6362    1.8836    0.0000 C   0  0  1  0  0  0  0  0  0  0  0  0
    9.6903    1.3520    0.0000 C   0  0  2  0  0  0  0  0  0  0  0  0
   13.3004    1.3941    0.0000 C   0  0  0  0  0  0  0  0  0  0  0  0
   11.5482    3.4356    0.0000 C   0  0  0  0  0  0  0  0  0  0  0  0
   14.1683    1.8908    0.0000 C   0  0  1  0  0  0  0  0  0  0  0  0
   10.6402    2.9252    0.0000 C   0  0  0  0  0  0  0  0  0  0  0  0
    9.6862    0.2670    0.0000 C   0  0  1  0  0  0  0  0  0  0  0  0
   11.5612    0.2815    0.0000 C   0  0  0  0  0  0  0  0  0  0  0  0
   13.7046    2.4926    0.0000 C   0  0  0  0  0  0  0  0  0  0  0  0
   13.2960    4.4357    0.0000 C   0  0  0  0  0  0  0  0  0  0  0  0
   15.0841    3.3941    0.0000 C   0  0  0  0  0  0  0  0  0  0  0  0
   10.6279   -0.2719    0.0000 C   0  0  0  0  0  0  0  0  0  0  0  0
   12.7748    0.9565    0.0000 C   0  0  0  0  0  0  0  0  0  0  0  0
   14.1961    4.9600    0.0000 C   0  0  2  0  0  0  0  0  0  0  0  0
   12.1860    0.6027    0.0000 C   0  0  0  0  0  0  0  0  0  0  0  0
    8.7140   -0.3094    0.0000 C   0  0  0  0  0  0  0  0  0  0  0  0
    8.7227    1.9358    0.0000 C   0  0  0  0  0  0  0  0  0  0  0  0
   15.0961    4.4357    0.0000 C   0  0  0  0  0  0  0  0  0  0  0  0
    9.6942    2.3520    0.0000 C   0  0  0  0  0  0  0  0  0  0  0  0
    7.7331    0.2520    0.0000 C   0  0  2  0  0  0  0  0  0  0  0  0
    7.7374    1.3821    0.0000 C   0  0  0  0  0  0  0  0  0  0  0  0
   14.6961    5.8260    0.0000 C   0  0  0  0  0  0  0  0  0  0  0  0
   13.6961    5.8260    0.0000 C   0  0  0  0  0  0  0  0  0  0  0  0
    9.2207   -1.1715    0.0000 C   0  0  0  0  0  0  0  0  0  0  0  0
    8.2207   -1.1792    0.0000 C   0  0  0  0  0  0  0  0  0  0  0  0
    6.8671   -1.2481    0.0000 C   0  0  2  0  0  0  0  0  0  0  0  0
   16.1961    6.6920    0.0000 C   0  0  0  0  0  0  0  0  0  0  0  0
   14.6961    7.5580    0.0000 C   0  0  0  0  0  0  0  0  0  0  0  0
    6.0010   -1.7480    0.0000 C   0  0  1  0  0  0  0  0  0  0  0  0
    6.0010   -2.7480    0.0000 C   0  0  2  0  0  0  0  0  0  0  0  0
    7.7331   -2.7480    0.0000 C   0  0  0  0  0  0  0  0  0  0  0  0
    6.8671   -3.2480    0.0000 C   0  0  2  0  0  0  0  0  0  0  0  0
    5.1350   -0.2480    0.0000 C   0  0  2  0  0  0  0  0  0  0  0  0
    4.2690    0.2520    0.0000 C   0  0  1  0  0  0  0  0  0  0  0  0
    6.0010   -4.7480    0.0000 C   0  0  2  0  0  0  0  0  0  0  0  0
    4.2690    1.2519    0.0000 C   0  0  2  0  0  0  0  0  0  0  0  0
    6.0010    1.2519    0.0000 C   0  0  1  0  0  0  0  0  0  0  0  0
    5.1350    1.7520    0.0000 C   0  0  1  0  0  0  0  0  0  0  0  0
    6.0010   -5.7480    0.0000 C   0  0  1  0  0  0  0  0  0  0  0  0
    5.1350   -6.2480    0.0000 C   0  0  2  0  0  0  0  0  0  0  0  0
    6.8671    1.7520    0.0000 C   0  0  0  0  0  0  0  0  0  0  0  0
    4.2690   -4.7480    0.0000 C   0  0  1  0  0  0  0  0  0  0  0  0
    4.2690   -5.7480    0.0000 C   0  0  1  0  0  0  0  0  0  0  0  0
    3.4030   -4.2480    0.0000 C   0  0  0  0  0  0  0  0  0  0  0  0
    7.7331   -5.7480    0.0000 C   0  0  2  0  0  0  0  0  0  0  0  0
    8.5991   -6.2480    0.0000 C   0  0  1  0  0  0  0  0  0  0  0  0
    9.4651   -5.7480    0.0000 C   0  0  2  0  0  0  0  0  0  0  0  0
    8.5991   -4.2480    0.0000 C   0  0  0  0  0  0  0  0  0  0  0  0
    9.4651   -4.7480    0.0000 C   0  0  1  0  0  0  0  0  0  0  0  0
   12.5736    3.8220    0.0000 H   0  0  0  0  0  0  0  0  0  0  0  0
   11.3723    2.3086    0.0000 H   0  0  0  0  0  0  0  0  0  0  0  0
   12.9000    0.9207    0.0000 H   0  0  0  0  0  0  0  0  0  0  0  0
   13.6970    0.9177    0.0000 H   0  0  0  0  0  0  0  0  0  0  0  0
   11.9546    3.9038    0.0000 H   0  0  0  0  0  0  0  0  0  0  0  0
   11.1565    3.9161    0.0000 H   0  0  0  0  0  0  0  0  0  0  0  0
   14.1659    1.2708    0.0000 H   0  0  0  0  0  0  0  0  0  0  0  0
   10.4334    3.5097    0.0000 H   0  0  0  0  0  0  0  0  0  0  0  0
   10.0289    2.8215    0.0000 H   0  0  0  0  0  0  0  0  0  0  0  0
    9.6927   -0.5830    0.0000 H   0  0  0  0  0  0  0  0  0  0  0  0
   11.7814   -0.2981    0.0000 H   0  0  0  0  0  0  0  0  0  0  0  0
   12.1699    0.3993    0.0000 H   0  0  0  0  0  0  0  0  0  0  0  0
   13.5267    1.8987    0.0000 H   0  0  0  0  0  0  0  0  0  0  0  0
   14.2238    2.1538    0.0000 H   0  0  0  0  0  0  0  0  0  0  0  0
   13.0802    5.0169    0.0000 H   0  0  0  0  0  0  0  0  0  0  0  0
   12.6864    4.3225    0.0000 H   0  0  0  0  0  0  0  0  0  0  0  0
   15.2864    2.8080    0.0000 H   0  0  0  0  0  0  0  0  0  0  0  0
   15.6961    3.4931    0.0000 H   0  0  0  0  0  0  0  0  0  0  0  0
   10.2324   -0.7494    0.0000 H   0  0  0  0  0  0  0  0  0  0  0  0
   11.0307   -0.7432    0.0000 H   0  0  0  0  0  0  0  0  0  0  0  0
   12.1913    0.7466    0.0000 H   0  0  0  0  0  0  0  0  0  0  0  0
   12.9846    0.3731    0.0000 H   0  0  0  0  0  0  0  0  0  0  0  0
   13.3582    1.1664    0.0000 H   0  0  0  0  0  0  0  0  0  0  0  0
   11.7126    0.2023    0.0000 H   0  0  0  0  0  0  0  0  0  0  0  0
   12.5864    0.1293    0.0000 H   0  0  0  0  0  0  0  0  0  0  0  0
   12.6594    1.0030    0.0000 H   0  0  0  0  0  0  0  0  0  0  0  0
    9.1291    2.4041    0.0000 H   0  0  0  0  0  0  0  0  0  0  0  0
    8.3309    2.4164    0.0000 H   0  0  0  0  0  0  0  0  0  0  0  0
   15.7057    4.3225    0.0000 H   0  0  0  0  0  0  0  0  0  0  0  0
   15.3119    5.0169    0.0000 H   0  0  0  0  0  0  0  0  0  0  0  0
   10.3142    2.3496    0.0000 H   0  0  0  0  0  0  0  0  0  0  0  0
    9.6966    2.9720    0.0000 H   0  0  0  0  0  0  0  0  0  0  0  0
    9.0742    2.3544    0.0000 H   0  0  0  0  0  0  0  0  0  0  0  0
    7.1968    0.5630    0.0000 H   0  0  0  0  0  0  0  0  0  0  0  0
    7.5306    1.9666    0.0000 H   0  0  0  0  0  0  0  0  0  0  0  0
    7.1262    1.2784    0.0000 H   0  0  0  0  0  0  0  0  0  0  0  0
   15.0300    0.7675    0.0000 H   0  0  0  0  0  0  0  0  0  0  0  0
   15.0061    6.3629    0.0000 H   0  0  0  0  0  0  0  0  0  0  0  0
   14.2330    6.1360    0.0000 H   0  0  0  0  0  0  0  0  0  0  0  0
   13.3861    6.3629    0.0000 H   0  0  0  0  0  0  0  0  0  0  0  0
   13.1591    5.5160    0.0000 H   0  0  0  0  0  0  0  0  0  0  0  0
    8.6861   -1.4856    0.0000 H   0  0  0  0  0  0  0  0  0  0  0  0
    9.5348   -1.7060    0.0000 H   0  0  0  0  0  0  0  0  0  0  0  0
    9.7552   -0.8574    0.0000 H   0  0  0  0  0  0  0  0  0  0  0  0
    7.6814   -0.8734    0.0000 H   0  0  0  0  0  0  0  0  0  0  0  0
    7.9148   -1.7185    0.0000 H   0  0  0  0  0  0  0  0  0  0  0  0
    8.7600   -1.4851    0.0000 H   0  0  0  0  0  0  0  0  0  0  0  0
    6.3301   -0.9380    0.0000 H   0  0  0  0  0  0  0  0  0  0  0  0
   16.7330    6.3820    0.0000 H   0  0  0  0  0  0  0  0  0  0  0  0
   16.5061    7.2290    0.0000 H   0  0  0  0  0  0  0  0  0  0  0  0
   15.6591    7.0020    0.0000 H   0  0  0  0  0  0  0  0  0  0  0  0
   15.2330    7.2480    0.0000 H   0  0  0  0  0  0  0  0  0  0  0  0
   15.0061    8.0950    0.0000 H   0  0  0  0  0  0  0  0  0  0  0  0
   14.1591    7.8680    0.0000 H   0  0  0  0  0  0  0  0  0  0  0  0
    6.0010   -1.1280    0.0000 H   0  0  0  0  0  0  0  0  0  0  0  0
    6.0010   -3.3680    0.0000 H   0  0  0  0  0  0  0  0  0  0  0  0
    7.9451   -3.3307    0.0000 H   0  0  0  0  0  0  0  0  0  0  0  0
    8.3437   -2.6404    0.0000 H   0  0  0  0  0  0  0  0  0  0  0  0
    7.4040   -3.5580    0.0000 H   0  0  0  0  0  0  0  0  0  0  0  0
    4.5981   -0.5580    0.0000 H   0  0  0  0  0  0  0  0  0  0  0  0
    4.5981   -2.9380    0.0000 H   0  0  0  0  0  0  0  0  0  0  0  0
    3.7320    0.5620    0.0000 H   0  0  0  0  0  0  0  0  0  0  0  0
    6.0010   -4.1280    0.0000 H   0  0  0  0  0  0  0  0  0  0  0  0
    4.2690    1.8720    0.0000 H   0  0  0  0  0  0  0  0  0  0  0  0
    6.5380    0.9420    0.0000 H   0  0  0  0  0  0  0  0  0  0  0  0
    5.6720    2.0620    0.0000 H   0  0  0  0  0  0  0  0  0  0  0  0
    6.0010   -6.3680    0.0000 H   0  0  0  0  0  0  0  0  0  0  0  0
    2.8660    0.0620    0.0000 H   0  0  0  0  0  0  0  0  0  0  0  0
    4.5981   -6.5580    0.0000 H   0  0  0  0  0  0  0  0  0  0  0  0
    7.0791    1.1693    0.0000 H   0  0  0  0  0  0  0  0  0  0  0  0
    7.4776    1.8596    0.0000 H   0  0  0  0  0  0  0  0  0  0  0  0
    4.2690   -4.1280    0.0000 H   0  0  0  0  0  0  0  0  0  0  0  0
    4.2690   -6.3680    0.0000 H   0  0  0  0  0  0  0  0  0  0  0  0
    3.4030    2.3720    0.0000 H   0  0  0  0  0  0  0  0  0  0  0  0
    5.6720    3.0620    0.0000 H   0  0  0  0  0  0  0  0  0  0  0  0
    3.8015   -3.7731    0.0000 H   0  0  0  0  0  0  0  0  0  0  0  0
    3.0044   -3.7731    0.0000 H   0  0  0  0  0  0  0  0  0  0  0  0
    4.5981   -7.5580    0.0000 H   0  0  0  0  0  0  0  0  0  0  0  0
    7.7331   -6.3680    0.0000 H   0  0  0  0  0  0  0  0  0  0  0  0
    7.4040    3.0620    0.0000 H   0  0  0  0  0  0  0  0  0  0  0  0
    3.4030   -6.8680    0.0000 H   0  0  0  0  0  0  0  0  0  0  0  0
    9.1360   -6.5580    0.0000 H   0  0  0  0  0  0  0  0  0  0  0  0
    2.0000   -4.4380    0.0000 H   0  0  0  0  0  0  0  0  0  0  0  0
   10.0021   -5.4380    0.0000 H   0  0  0  0  0  0  0  0  0  0  0  0
    8.9976   -3.7731    0.0000 H   0  0  0  0  0  0  0  0  0  0  0  0
    8.2006   -3.7731    0.0000 H   0  0  0  0  0  0  0  0  0  0  0  0
    9.4651   -4.1280    0.0000 H   0  0  0  0  0  0  0  0  0  0  0  0
    8.0622   -7.5580    0.0000 H   0  0  0  0  0  0  0  0  0  0  0  0
   10.8681   -5.9380    0.0000 H   0  0  0  0  0  0  0  0  0  0  0  0
   10.3312   -3.6280    0.0000 H   0  0  0  0  0  0  0  0  0  0  0  0
  1 25  1  0  0  0  0
  1 37  1  0  0  0  0
 33  2  1  6  0  0  0
  2114  1  0  0  0  0
 48  3  1  1  0  0  0
 54  3  1  6  0  0  0
  4 50  1  0  0  0  0
  4 55  1  0  0  0  0
  5 50  1  0  0  0  0
  5 56  1  0  0  0  0
  6 54  1  0  0  0  0
  6 59  1  0  0  0  0
 57  7  1  1  0  0  0
 61  7  1  1  0  0  0
 58  8  1  6  0  0  0
  8138  1  0  0  0  0
 60  9  1  6  0  0  0
 63  9  1  1  0  0  0
 10 61  1  0  0  0  0
 10 65  1  0  0  0  0
 62 11  1  6  0  0  0
 11145  1  0  0  0  0
 12 63  1  0  0  0  0
 12 70  1  0  0  0  0
 64 13  1  1  0  0  0
 13151  1  0  0  0  0
 67 14  1  6  0  0  0
 73 14  1  6  0  0  0
 66 15  1  6  0  0  0
 15152  1  0  0  0  0
 68 16  1  1  0  0  0
 16155  1  0  0  0  0
 17 69  1  0  0  0  0
 17157  1  0  0  0  0
 71 18  1  6  0  0  0
 18158  1  0  0  0  0
 19 72  1  0  0  0  0
 19160  1  0  0  0  0
 20 73  1  0  0  0  0
 20 76  1  0  0  0  0
 74 21  1  1  0  0  0
 21165  1  0  0  0  0
 75 22  1  6  0  0  0
 22166  1  0  0  0  0
 77 23  1  1  0  0  0
 23167  1  0  0  0  0
 24 25  1  0  0  0  0
 24 26  1  0  0  0  0
 24 31  1  0  0  0  0
 24 41  1  6  0  0  0
 25 27  1  0  0  0  0
 25 32  1  1  0  0  0
 26 29  1  0  0  0  0
 26 36  1  0  0  0  0
 26 43  1  1  0  0  0
 27 28  1  0  0  0  0
 27 38  1  0  0  0  0
 27 78  1  1  0  0  0
 28 33  1  0  0  0  0
 28 37  1  0  0  0  0
 28 39  1  1  0  0  0
 29 30  1  0  0  0  0
 29 34  1  0  0  0  0
 29 79  1  6  0  0  0
 30 35  1  0  0  0  0
 30 45  1  0  0  0  0
 30 47  1  1  0  0  0
 31 33  1  0  0  0  0
 31 80  1  0  0  0  0
 31 81  1  0  0  0  0
 32 34  1  0  0  0  0
 32 82  1  0  0  0  0
 32 83  1  0  0  0  0
 33 84  1  0  0  0  0
 34 85  1  0  0  0  0
 34 86  1  0  0  0  0
 35 40  1  0  0  0  0
 35 44  1  0  0  0  0
 35 87  1  6  0  0  0
 36 40  1  0  0  0  0
 36 88  1  0  0  0  0
 36 89  1  0  0  0  0
 37 90  1  0  0  0  0
 37 91  1  0  0  0  0
 38 42  1  0  0  0  0
 38 92  1  0  0  0  0
 38 93  1  0  0  0  0
 39 46  1  0  0  0  0
 39 94  1  0  0  0  0
 39 95  1  0  0  0  0
 40 96  1  0  0  0  0
 40 97  1  0  0  0  0
 41 98  1  0  0  0  0
 41 99  1  0  0  0  0
 41100  1  0  0  0  0
 42 46  1  0  0  0  0
 42 50  1  0  0  0  0
 42 51  1  6  0  0  0
 43101  1  0  0  0  0
 43102  1  0  0  0  0
 43103  1  0  0  0  0
 44 48  1  0  0  0  0
 44 52  1  0  0  0  0
 44 53  1  0  0  0  0
 45 49  1  0  0  0  0
 45104  1  0  0  0  0
 45105  1  0  0  0  0
 46106  1  0  0  0  0
 46107  1  0  0  0  0
 47108  1  0  0  0  0
 47109  1  0  0  0  0
 47110  1  0  0  0  0
 48 49  1  0  0  0  0
 48111  1  0  0  0  0
 49112  1  0  0  0  0
 49113  1  0  0  0  0
 50115  1  0  0  0  0
 51116  1  0  0  0  0
 51117  1  0  0  0  0
 51118  1  0  0  0  0
 52119  1  0  0  0  0
 52120  1  0  0  0  0
 52121  1  0  0  0  0
 53122  1  0  0  0  0
 53123  1  0  0  0  0
 53124  1  0  0  0  0
 54 57  1  0  0  0  0
 54125  1  0  0  0  0
 55126  1  0  0  0  0
 55127  1  0  0  0  0
 55128  1  0  0  0  0
 56129  1  0  0  0  0
 56130  1  0  0  0  0
 56131  1  0  0  0  0
 57 58  1  0  0  0  0
 57132  1  0  0  0  0
 58 60  1  0  0  0  0
 58133  1  0  0  0  0
 59 60  1  0  0  0  0
 59134  1  0  0  0  0
 59135  1  0  0  0  0
 60136  1  0  0  0  0
 61 62  1  0  0  0  0
 61137  1  0  0  0  0
 62 64  1  0  0  0  0
 62139  1  0  0  0  0
 63 67  1  0  0  0  0
 63140  1  0  0  0  0
 64 66  1  0  0  0  0
 64141  1  0  0  0  0
 65 66  1  0  0  0  0
 65 69  1  1  0  0  0
 65142  1  0  0  0  0
 66143  1  0  0  0  0
 67 68  1  0  0  0  0
 67144  1  0  0  0  0
 68 71  1  0  0  0  0
 68146  1  0  0  0  0
 69147  1  0  0  0  0
 69148  1  0  0  0  0
 70 71  1  0  0  0  0
 70 72  1  1  0  0  0
 70149  1  0  0  0  0
 71150  1  0  0  0  0
 72153  1  0  0  0  0
 72154  1  0  0  0  0
 73 74  1  0  0  0  0
 73156  1  0  0  0  0
 74 75  1  0  0  0  0
 74159  1  0  0  0  0
 75 77  1  0  0  0  0
 75161  1  0  0  0  0
 76 77  1  0  0  0  0
 76162  1  0  0  0  0
 76163  1  0  0  0  0
 77164  1  0  0  0  0
M  END
> <PUBCHEM_COMPOUND_CID>
52918164

> <PUBCHEM_COMPOUND_CANONICALIZED>
1

> <PUBCHEM_CACTVS_COMPLEXITY>
2060

> <PUBCHEM_CACTVS_HBOND_ACCEPTOR>
23

> <PUBCHEM_CACTVS_HBOND_DONOR>
12

> <PUBCHEM_CACTVS_ROTATABLE_BOND>
13

> <PUBCHEM_CACTVS_SUBSKEYS>
AAADcfB8PgAAAAAAAAAAAAAAAAAAASAAAAA0aNGjBIAAAEjAAAAAGgAACAAAD1SwgAMCCAAABgAAAAAAAAAAAAAAAAAAAAAAAAAREAIAAAAiQAAFAAAHAAHA4PwPgAAAAAAAAADCAAYAADAAAAAAAAAAAA==

> <PUBCHEM_IUPAC_OPENEYE_NAME>
(2S,3R,4S,5S,6R)-2-[(2S,3R,4S,5S)-5-[(2S,3R,4S,5S,6R)-4,5-dihydroxy-6-(hydroxymethyl)-3-[(2S,3R,4S,5R)-3,4,5-trihydroxytetrahydropyran-2-yl]oxy-tetrahydropyran-2-yl]oxy-2-[[(1S,2R,4S,5R,8R,10S,13R,14R,17S,18R,20S)-20-(dimethoxymethyl)-2-hydroxy-4,5,9,9,13,20-hexamethyl-24-oxahexacyclo[15.5.2.01,18.04,17.05,14.08,13]tetracosan-10-yl]oxy]-4-hydroxy-tetrahydropyran-3-yl]oxy-6-(hydroxymethyl)tetrahydropyran-3,4,5-triol

> <PUBCHEM_IUPAC_CAS_NAME>
(2S,3R,4S,5S,6R)-2-[[(2S,3R,4S,5S)-5-[[(2S,3R,4S,5S,6R)-4,5-dihydroxy-6-(hydroxymethyl)-3-[[(2S,3R,4S,5R)-3,4,5-trihydroxy-2-oxanyl]oxy]-2-oxanyl]oxy]-2-[[(1S,2R,4S,5R,8R,10S,13R,14R,17S,18R,20S)-20-(dimethoxymethyl)-2-hydroxy-4,5,9,9,13,20-hexamethyl-24-oxahexacyclo[15.5.2.01,18.04,17.05,14.08,13]tetracosan-10-yl]oxy]-4-hydroxy-3-oxanyl]oxy]-6-(hydroxymethyl)oxane-3,4,5-triol

> <PUBCHEM_IUPAC_NAME_MARKUP>
(2<I>S</I>,3<I>R</I>,4<I>S</I>,5<I>S</I>,6<I>R</I>)-2-[(2<I>S</I>,3<I>R</I>,4<I>S</I>,5<I>S</I>)-5-[(2<I>S</I>,3<I>R</I>,4<I>S</I>,5<I>S</I>,6<I>R</I>)-4,5-dihydroxy-6-(hydroxymethyl)-3-[(2<I>S</I>,3<I>R</I>,4<I>S</I>,5<I>R</I>)-3,4,5-trihydroxyoxan-2-yl]oxyoxan-2-yl]oxy-2-[[(1<I>S</I>,2<I>R</I>,4<I>S</I>,5<I>R</I>,8<I>R</I>,10<I>S</I>,13<I>R</I>,14<I>R</I>,17<I>S</I>,18<I>R</I>,20<I>S</I>)-20-(dimethoxymethyl)-2-hydroxy-4,5,9,9,13,20-hexamethyl-24-oxahexacyclo[15.5.2.0<SUP>1,18</SUP>.0<SUP>4,17</SUP>.0<SUP>5,14</SUP>.0<SUP>8,13</SUP>]tetracosan-10-yl]oxy]-4-hydroxyoxan-3-yl]oxy-6-(hydroxymethyl)oxane-3,4,5-triol

> <PUBCHEM_IUPAC_NAME>
(2S,3R,4S,5S,6R)-2-[(2S,3R,4S,5S)-5-[(2S,3R,4S,5S,6R)-4,5-dihydroxy-6-(hydroxymethyl)-3-[(2S,3R,4S,5R)-3,4,5-trihydroxyoxan-2-yl]oxyoxan-2-yl]oxy-2-[[(1S,2R,4S,5R,8R,10S,13R,14R,17S,18R,20S)-20-(dimethoxymethyl)-2-hydroxy-4,5,9,9,13,20-hexamethyl-24-oxahexacyclo[15.5.2.01,18.04,17.05,14.08,13]tetracosan-10-yl]oxy]-4-hydroxyoxan-3-yl]oxy-6-(hydroxymethyl)oxane-3,4,5-triol

> <PUBCHEM_IUPAC_SYSTEMATIC_NAME>
(2S,3R,4S,5S,6R)-2-[(2S,3R,4S,5S)-2-[[(1S,2R,4S,5R,8R,10S,13R,14R,17S,18R,20S)-20-(dimethoxymethyl)-4,5,9,9,13,20-hexamethyl-2-oxidanyl-24-oxahexacyclo[15.5.2.01,18.04,17.05,14.08,13]tetracosan-10-yl]oxy]-5-[(2S,3R,4S,5S,6R)-6-(hydroxymethyl)-4,5-bis(oxidanyl)-3-[(2S,3R,4S,5R)-3,4,5-tris(oxidanyl)oxan-2-yl]oxy-oxan-2-yl]oxy-4-oxidanyl-oxan-3-yl]oxy-6-(hydroxymethyl)oxane-3,4,5-triol

> <PUBCHEM_IUPAC_TRADITIONAL_NAME>
(2S,3R,4S,5S,6R)-2-[(2S,3R,4S,5S)-5-[(2S,3R,4S,5S,6R)-4,5-dihydroxy-6-methylol-3-[(2S,3R,4S,5R)-3,4,5-trihydroxytetrahydropyran-2-yl]oxy-tetrahydropyran-2-yl]oxy-2-[[(1S,2R,4S,5R,8R,10S,13R,14R,17S,18R,20S)-20-(dimethoxymethyl)-2-hydroxy-4,5,9,9,13,20-hexamethyl-24-oxahexacyclo[15.5.2.01,18.04,17.05,14.08,13]tetracosan-10-yl]oxy]-4-hydroxy-tetrahydropyran-3-yl]oxy-6-methylol-tetrahydropyran-3,4,5-triol

> <PUBCHEM_IUPAC_INCHI>
InChI=1S/C54H90O23/c1-48(2)28-9-13-51(5)29(10-14-54-30-17-49(3,47(67-7)68-8)15-16-53(30,23-71-54)31(58)18-52(51,54)6)50(28,4)12-11-32(48)75-45-41(77-44-40(66)37(63)34(60)25(19-55)72-44)36(62)27(22-70-45)74-46-42(38(64)35(61)26(20-56)73-46)76-43-39(65)33(59)24(57)21-69-43/h24-47,55-66H,9-23H2,1-8H3/t24-,25-,26-,27+,28+,29-,30-,31-,32+,33+,34-,35-,36+,37+,38+,39-,40-,41-,42-,43+,44+,45+,46+,49+,50+,51-,52+,53-,54+/m1/s1

> <PUBCHEM_IUPAC_INCHIKEY>
LVXIEWCLNYFGAG-GYOYFZEFSA-N

> <PUBCHEM_XLOGP3_AA>
-0.4

> <PUBCHEM_EXACT_MASS>
1106.587289

> <PUBCHEM_MOLECULAR_FORMULA>
C54H90O23

> <PUBCHEM_MOLECULAR_WEIGHT>
1107.3

> <PUBCHEM_OPENEYE_CAN_SMILES>
CC1(C2CCC3(C(C2(CCC1OC4C(C(C(CO4)OC5C(C(C(C(O5)CO)O)O)OC6C(C(C(CO6)O)O)O)O)OC7C(C(C(C(O7)CO)O)O)O)C)CCC89C3(CC(C1(C8CC(CC1)(C)C(OC)OC)CO9)O)C)C)C

> <PUBCHEM_OPENEYE_ISO_SMILES>
C[C@@]1(CC[C@@]23CO[C@]4([C@@H]2C1)CC[C@@H]5[C@]6(CC[C@@H](C([C@@H]6CC[C@]5([C@@]4(C[C@H]3O)C)C)(C)C)O[C@H]7[C@@H]([C@H]([C@H](CO7)O[C@H]8[C@@H]([C@H]([C@@H]([C@H](O8)CO)O)O)O[C@H]9[C@@H]([C@H]([C@@H](CO9)O)O)O)O)O[C@H]1[C@@H]([C@H]([C@@H]([C@H](O1)CO)O)O)O)C)C(OC)OC

> <PUBCHEM_CACTVS_TPSA>
344

> <PUBCHEM_MONOISOTOPIC_WEIGHT>
1106.587289

> <PUBCHEM_TOTAL_CHARGE>
0

> <PUBCHEM_HEAVY_ATOM_COUNT>
77

> <PUBCHEM_ATOM_DEF_STEREO_COUNT>
29

> <PUBCHEM_ATOM_UDEF_STEREO_COUNT>
0

> <PUBCHEM_BOND_DEF_STEREO_COUNT>
0

> <PUBCHEM_BOND_UDEF_STEREO_COUNT>
0

> <PUBCHEM_ISOTOPIC_ATOM_COUNT>
0

> <PUBCHEM_COMPONENT_COUNT>
1

> <PUBCHEM_CACTVS_TAUTO_COUNT>
-1

> <PUBCHEM_COORDINATE_TYPE>
1
5
255

> <PUBCHEM_BONDANNOTATIONS>
62  11  6
64  13  5
67  14  6
73  14  6
66  15  6
68  16  5
71  18  6
33  2  6
74  21  5
75  22  6
77  23  5
24  41  6
25  32  5
26  43  5
27  78  5
28  39  5
29  79  6
48  3  5
54  3  6
30  47  5
35  87  6
42  51  6
65  69  5
57  7  5
61  7  5
70  72  5
58  8  6
60  9  6
63  9  5

$$$$
