46882879
  -OEChem-09132011322D

 77 83  0     1  0  0  0  0  0999 V2000
   12.7360    0.1060    0.0000 O   0  0  0  0  0  0  0  0  0  0  0  0
   12.1457    1.9090    0.0000 O   0  0  0  0  0  0  0  0  0  0  0  0
   11.1972   -1.3940    0.0000 O   0  0  0  0  0  0  0  0  0  0  0  0
   10.4568    2.8846    0.0000 O   0  0  0  0  0  0  0  0  0  0  0  0
   10.3312    2.1060    0.0000 O   0  0  0  0  0  0  0  0  0  0  0  0
    9.4651   -1.3940    0.0000 O   0  0  0  0  0  0  0  0  0  0  0  0
   11.1972   -3.3940    0.0000 O   0  0  0  0  0  0  0  0  0  0  0  0
    9.4651   -4.3940    0.0000 O   0  0  0  0  0  0  0  0  0  0  0  0
    8.8312    1.2399    0.0000 O   0  0  0  0  0  0  0  0  0  0  0  0
    7.7331   -3.3940    0.0000 O   0  0  0  0  0  0  0  0  0  0  0  0
    6.8671   -1.8940    0.0000 O   0  0  0  0  0  0  0  0  0  0  0  0
    6.0010   -0.3940    0.0000 O   0  0  0  0  0  0  0  0  0  0  0  0
    4.2690   -4.3940    0.0000 O   0  0  0  0  0  0  0  0  0  0  0  0
    2.5369   -1.3940    0.0000 O   0  0  0  0  0  0  0  0  0  0  0  0
    2.5369   -3.3940    0.0000 O   0  0  0  0  0  0  0  0  0  0  0  0
   11.1972    0.6060    0.0000 C   0  0  1  0  0  0  0  0  0  0  0  0
   11.1972   -0.3940    0.0000 C   0  0  1  0  0  0  0  0  0  0  0  0
   10.6150    1.4117    0.0000 C   0  0  2  0  0  0  0  0  0  0  0  0
   12.1482   -0.7031    0.0000 C   0  0  2  0  0  0  0  0  0  0  0  0
   10.6094    0.4132    0.0000 C   0  0  0  0  0  0  0  0  0  0  0  0
   11.2000    2.2154    0.0000 C   0  0  1  0  0  0  0  0  0  0  0  0
   12.1482    0.9150    0.0000 C   0  0  2  0  0  0  0  0  0  0  0  0
   12.5166    1.0299    0.0000 C   0  0  0  0  0  0  0  0  0  0  0  0
   11.1972    1.6060    0.0000 C   0  0  0  0  0  0  0  0  0  0  0  0
   12.4573   -1.6541    0.0000 C   0  0  0  0  0  0  0  0  0  0  0  0
   10.3312   -1.8940    0.0000 C   0  0  2  0  0  0  0  0  0  0  0  0
   10.3312   -2.8940    0.0000 C   0  0  1  0  0  0  0  0  0  0  0  0
    9.3312    2.1060    0.0000 C   0  0  0  0  0  0  0  0  0  0  0  0
    9.4651   -3.3940    0.0000 C   0  0  2  0  0  0  0  0  0  0  0  0
    8.5991   -1.8940    0.0000 C   0  0  1  0  0  0  0  0  0  0  0  0
    8.5991   -2.8940    0.0000 C   0  0  1  0  0  0  0  0  0  0  0  0
    8.8312    2.9721    0.0000 C   0  0  0  0  0  0  0  0  0  0  0  0
    7.7331   -1.3940    0.0000 C   0  0  0  0  0  0  0  0  0  0  0  0
    9.3312    3.8380    0.0000 C   0  0  0  0  0  0  0  0  0  0  0  0
    7.8312    2.9721    0.0000 C   0  0  0  0  0  0  0  0  0  0  0  0
    8.8312    4.7040    0.0000 C   0  0  0  0  0  0  0  0  0  0  0  0
    7.3312    3.8381    0.0000 C   0  0  0  0  0  0  0  0  0  0  0  0
    7.8312    4.7040    0.0000 C   0  0  0  0  0  0  0  0  0  0  0  0
    6.0010   -1.3940    0.0000 C   0  0  0  0  0  0  0  0  0  0  0  0
    5.1350   -1.8940    0.0000 C   0  0  0  0  0  0  0  0  0  0  0  0
    4.2690   -1.3940    0.0000 C   0  0  0  0  0  0  0  0  0  0  0  0
    5.1350   -2.8940    0.0000 C   0  0  0  0  0  0  0  0  0  0  0  0
    4.2690   -3.3940    0.0000 C   0  0  0  0  0  0  0  0  0  0  0  0
    3.4030   -1.8940    0.0000 C   0  0  0  0  0  0  0  0  0  0  0  0
    3.4030   -2.8940    0.0000 C   0  0  0  0  0  0  0  0  0  0  0  0
    9.8781    0.9880    0.0000 H   0  0  0  0  0  0  0  0  0  0  0  0
   10.0204    0.6068    0.0000 H   0  0  0  0  0  0  0  0  0  0  0  0
   10.2444   -0.0880    0.0000 H   0  0  0  0  0  0  0  0  0  0  0  0
   12.9364    0.5966    0.0000 H   0  0  0  0  0  0  0  0  0  0  0  0
   13.0915    0.7977    0.0000 H   0  0  0  0  0  0  0  0  0  0  0  0
   12.8452    1.5557    0.0000 H   0  0  0  0  0  0  0  0  0  0  0  0
   11.8078    1.4983    0.0000 H   0  0  0  0  0  0  0  0  0  0  0  0
   11.4092    2.1886    0.0000 H   0  0  0  0  0  0  0  0  0  0  0  0
   11.8676   -1.8457    0.0000 H   0  0  0  0  0  0  0  0  0  0  0  0
   12.6489   -2.2438    0.0000 H   0  0  0  0  0  0  0  0  0  0  0  0
   13.0469   -1.4625    0.0000 H   0  0  0  0  0  0  0  0  0  0  0  0
   10.5857    3.4910    0.0000 H   0  0  0  0  0  0  0  0  0  0  0  0
   10.3312   -1.2740    0.0000 H   0  0  0  0  0  0  0  0  0  0  0  0
   10.3312   -3.5140    0.0000 H   0  0  0  0  0  0  0  0  0  0  0  0
    8.9282   -3.7040    0.0000 H   0  0  0  0  0  0  0  0  0  0  0  0
    8.5991   -1.2740    0.0000 H   0  0  0  0  0  0  0  0  0  0  0  0
    8.5991   -3.5140    0.0000 H   0  0  0  0  0  0  0  0  0  0  0  0
   11.1972   -4.0140    0.0000 H   0  0  0  0  0  0  0  0  0  0  0  0
    8.1316   -0.9191    0.0000 H   0  0  0  0  0  0  0  0  0  0  0  0
    7.3346   -0.9191    0.0000 H   0  0  0  0  0  0  0  0  0  0  0  0
    8.9282   -4.7040    0.0000 H   0  0  0  0  0  0  0  0  0  0  0  0
    7.7331   -4.0140    0.0000 H   0  0  0  0  0  0  0  0  0  0  0  0
    9.9512    3.8380    0.0000 H   0  0  0  0  0  0  0  0  0  0  0  0
    7.5212    2.4351    0.0000 H   0  0  0  0  0  0  0  0  0  0  0  0
    9.1412    5.2410    0.0000 H   0  0  0  0  0  0  0  0  0  0  0  0
    6.7112    3.8381    0.0000 H   0  0  0  0  0  0  0  0  0  0  0  0
    7.5212    5.2410    0.0000 H   0  0  0  0  0  0  0  0  0  0  0  0
    4.2690   -0.7740    0.0000 H   0  0  0  0  0  0  0  0  0  0  0  0
    5.6720   -3.2040    0.0000 H   0  0  0  0  0  0  0  0  0  0  0  0
    3.7320   -4.7040    0.0000 H   0  0  0  0  0  0  0  0  0  0  0  0
    2.5369   -0.7740    0.0000 H   0  0  0  0  0  0  0  0  0  0  0  0
    2.0000   -3.0840    0.0000 H   0  0  0  0  0  0  0  0  0  0  0  0
  1 19  1  0  0  0  0
  1 22  1  0  0  0  0
  2 21  1  0  0  0  0
  2 22  1  0  0  0  0
 17  3  1  1  0  0  0
 26  3  1  1  0  0  0
 21  4  1  1  0  0  0
  4 57  1  0  0  0  0
  5 24  1  0  0  0  0
  5 28  1  0  0  0  0
  6 26  1  0  0  0  0
  6 30  1  0  0  0  0
 27  7  1  6  0  0  0
  7 63  1  0  0  0  0
 29  8  1  1  0  0  0
  8 66  1  0  0  0  0
  9 28  2  0  0  0  0
 31 10  1  6  0  0  0
 10 67  1  0  0  0  0
 11 33  1  0  0  0  0
 11 39  1  0  0  0  0
 12 39  2  0  0  0  0
 13 43  1  0  0  0  0
 13 75  1  0  0  0  0
 14 44  1  0  0  0  0
 14 76  1  0  0  0  0
 15 45  1  0  0  0  0
 15 77  1  0  0  0  0
 16 17  1  0  0  0  0
 16 18  1  0  0  0  0
 16 22  1  0  0  0  0
 16 24  1  6  0  0  0
 17 19  1  0  0  0  0
 17 20  1  0  0  0  0
 18 20  1  0  0  0  0
 18 21  1  0  0  0  0
 18 46  1  1  0  0  0
 19 23  1  0  0  0  0
 19 25  1  1  0  0  0
 20 47  1  0  0  0  0
 20 48  1  0  0  0  0
 21 23  1  0  0  0  0
 22 49  1  6  0  0  0
 23 50  1  0  0  0  0
 23 51  1  0  0  0  0
 24 52  1  0  0  0  0
 24 53  1  0  0  0  0
 25 54  1  0  0  0  0
 25 55  1  0  0  0  0
 25 56  1  0  0  0  0
 26 27  1  0  0  0  0
 26 58  1  0  0  0  0
 27 29  1  0  0  0  0
 27 59  1  0  0  0  0
 28 32  1  0  0  0  0
 29 31  1  0  0  0  0
 29 60  1  0  0  0  0
 30 31  1  0  0  0  0
 30 33  1  1  0  0  0
 30 61  1  0  0  0  0
 31 62  1  0  0  0  0
 32 34  2  0  0  0  0
 32 35  1  0  0  0  0
 33 64  1  0  0  0  0
 33 65  1  0  0  0  0
 34 36  1  0  0  0  0
 34 68  1  0  0  0  0
 35 37  2  0  0  0  0
 35 69  1  0  0  0  0
 36 38  2  0  0  0  0
 36 70  1  0  0  0  0
 37 38  1  0  0  0  0
 37 71  1  0  0  0  0
 38 72  1  0  0  0  0
 39 40  1  0  0  0  0
 40 41  2  0  0  0  0
 40 42  1  0  0  0  0
 41 44  1  0  0  0  0
 41 73  1  0  0  0  0
 42 43  2  0  0  0  0
 42 74  1  0  0  0  0
 43 45  1  0  0  0  0
 44 45  2  0  0  0  0
M  END
> <PUBCHEM_COMPOUND_CID>
46882879

> <PUBCHEM_COMPOUND_CANONICALIZED>
1

> <PUBCHEM_CACTVS_COMPLEXITY>
1170

> <PUBCHEM_CACTVS_HBOND_ACCEPTOR>
15

> <PUBCHEM_CACTVS_HBOND_DONOR>
7

> <PUBCHEM_CACTVS_ROTATABLE_BOND>
10

> <PUBCHEM_CACTVS_SUBSKEYS>
AAADcfB4PAAAAAAAAAAAAAAAAABgASJAAAA0aMGCAAAAAAABQAAAGgAACAAAD1SwmAMyDoAABgCIAiDSCAACAAAkIAAIiAEGiMgZNzKCNRqicQElwBUPuYfK7PzPoAABCAAAQADCAAYQADCAAAAAAAAAAA==

> <PUBCHEM_IUPAC_OPENEYE_NAME>
[(2R,3S,4S,5R,6S)-6-[[(1R,2S,3S,5S,6R,8S)-2-(benzoyloxymethyl)-6-hydroxy-8-methyl-9,10-dioxatetracyclo[4.3.1.02,5.03,8]decan-3-yl]oxy]-3,4,5-trihydroxy-tetrahydropyran-2-yl]methyl 3,4,5-trihydroxybenzoate

> <PUBCHEM_IUPAC_CAS_NAME>
3,4,5-trihydroxybenzoic acid [(2R,3S,4S,5R,6S)-6-[[(1R,2S,3S,5S,6R,8S)-2-(benzoyloxymethyl)-6-hydroxy-8-methyl-9,10-dioxatetracyclo[4.3.1.02,5.03,8]decan-3-yl]oxy]-3,4,5-trihydroxy-2-oxanyl]methyl ester

> <PUBCHEM_IUPAC_NAME_MARKUP>
[(2<I>R</I>,3<I>S</I>,4<I>S</I>,5<I>R</I>,6<I>S</I>)-6-[[(1<I>R</I>,2<I>S</I>,3<I>S</I>,5<I>S</I>,6<I>R</I>,8<I>S</I>)-2-(benzoyloxymethyl)-6-hydroxy-8-methyl-9,10-dioxatetracyclo[4.3.1.0<SUP>2,5</SUP>.0<SUP>3,8</SUP>]decan-3-yl]oxy]-3,4,5-trihydroxyoxan-2-yl]methyl 3,4,5-trihydroxybenzoate

> <PUBCHEM_IUPAC_NAME>
[(2R,3S,4S,5R,6S)-6-[[(1R,2S,3S,5S,6R,8S)-2-(benzoyloxymethyl)-6-hydroxy-8-methyl-9,10-dioxatetracyclo[4.3.1.02,5.03,8]decan-3-yl]oxy]-3,4,5-trihydroxyoxan-2-yl]methyl 3,4,5-trihydroxybenzoate

> <PUBCHEM_IUPAC_SYSTEMATIC_NAME>
[(2R,3S,4S,5R,6S)-6-[[(1R,2S,3S,5S,6R,8S)-8-methyl-6-oxidanyl-2-(phenylcarbonyloxymethyl)-9,10-dioxatetracyclo[4.3.1.02,5.03,8]decan-3-yl]oxy]-3,4,5-tris(oxidanyl)oxan-2-yl]methyl 3,4,5-tris(oxidanyl)benzoate

> <PUBCHEM_IUPAC_TRADITIONAL_NAME>
3,4,5-trihydroxybenzoic acid [(2R,3S,4S,5R,6S)-6-[[(1R,2S,3S,5S,6R,8S)-2-(benzoyloxymethyl)-6-hydroxy-8-methyl-9,10-dioxatetracyclo[4.3.1.02,5.03,8]decan-3-yl]oxy]-3,4,5-trihydroxy-tetrahydropyran-2-yl]methyl ester

> <PUBCHEM_IUPAC_INCHI>
InChI=1S/C30H32O15/c1-27-11-29(39)18-9-30(27,28(18,26(44-27)45-29)12-41-23(37)13-5-3-2-4-6-13)43-25-22(36)21(35)20(34)17(42-25)10-40-24(38)14-7-15(31)19(33)16(32)8-14/h2-8,17-18,20-22,25-26,31-36,39H,9-12H2,1H3/t17-,18+,20-,21+,22-,25+,26-,27+,28+,29-,30-/m1/s1

> <PUBCHEM_IUPAC_INCHIKEY>
KLFIUQCKSSAFFU-ANNBSXMPSA-N

> <PUBCHEM_XLOGP3_AA>
-0.4

> <PUBCHEM_EXACT_MASS>
632.17412

> <PUBCHEM_MOLECULAR_FORMULA>
C30H32O15

> <PUBCHEM_MOLECULAR_WEIGHT>
632.6

> <PUBCHEM_OPENEYE_CAN_SMILES>
CC12CC3(C4CC1(C4(C(O2)O3)COC(=O)C5=CC=CC=C5)OC6C(C(C(C(O6)COC(=O)C7=CC(=C(C(=C7)O)O)O)O)O)O)O

> <PUBCHEM_OPENEYE_ISO_SMILES>
C[C@]12C[C@@]3([C@H]4C[C@@]1([C@@]4([C@H](O2)O3)COC(=O)C5=CC=CC=C5)O[C@H]6[C@@H]([C@H]([C@@H]([C@H](O6)COC(=O)C7=CC(=C(C(=C7)O)O)O)O)O)O)O

> <PUBCHEM_CACTVS_TPSA>
231

> <PUBCHEM_MONOISOTOPIC_WEIGHT>
632.17412

> <PUBCHEM_TOTAL_CHARGE>
0

> <PUBCHEM_HEAVY_ATOM_COUNT>
45

> <PUBCHEM_ATOM_DEF_STEREO_COUNT>
11

> <PUBCHEM_ATOM_UDEF_STEREO_COUNT>
0

> <PUBCHEM_BOND_DEF_STEREO_COUNT>
0

> <PUBCHEM_BOND_UDEF_STEREO_COUNT>
0

> <PUBCHEM_ISOTOPIC_ATOM_COUNT>
0

> <PUBCHEM_COMPONENT_COUNT>
1

> <PUBCHEM_CACTVS_TAUTO_COUNT>
-1

> <PUBCHEM_COORDINATE_TYPE>
1
5
255

> <PUBCHEM_BONDANNOTATIONS>
31  10  6
16  24  6
18  46  5
19  25  5
22  49  6
17  3  5
26  3  5
30  33  5
32  34  8
32  35  8
34  36  8
35  37  8
36  38  8
37  38  8
21  4  5
40  41  8
40  42  8
41  44  8
42  43  8
43  45  8
44  45  8
27  7  6
29  8  5

$$$$
