101103169
  -OEChem-11212001202D

150157  0     1  0  0  0  0  0999 V2000
   21.8779    1.9019    0.0000 O   0  0  0  0  0  0  0  0  0  0  0  0
   21.8456   -0.1895    0.0000 O   0  0  0  0  0  0  0  0  0  0  0  0
   20.0774    3.6937    0.0000 O   0  0  0  0  0  0  0  0  0  0  0  0
   12.9292   -1.1157    0.0000 O   0  0  0  0  0  0  0  0  0  0  0  0
   13.7953    0.3843    0.0000 O   0  0  0  0  0  0  0  0  0  0  0  0
   11.1972   -1.1157    0.0000 O   0  0  0  0  0  0  0  0  0  0  0  0
   21.5807    4.5539    0.0000 O   0  0  0  0  0  0  0  0  0  0  0  0
   12.9292    0.8843    0.0000 O   0  0  0  0  0  0  0  0  0  0  0  0
   11.1972    1.8843    0.0000 O   0  0  0  0  0  0  0  0  0  0  0  0
    9.4651    0.8843    0.0000 O   0  0  0  0  0  0  0  0  0  0  0  0
    9.4651   -2.1157    0.0000 O   0  0  0  0  0  0  0  0  0  0  0  0
    7.7331   -2.1157    0.0000 O   0  0  0  0  0  0  0  0  0  0  0  0
    9.4651   -4.1157    0.0000 O   0  0  0  0  0  0  0  0  0  0  0  0
    6.0010   -4.1157    0.0000 O   0  0  0  0  0  0  0  0  0  0  0  0
    7.7331   -5.1157    0.0000 O   0  0  0  0  0  0  0  0  0  0  0  0
    6.0010   -1.1157    0.0000 O   0  0  0  0  0  0  0  0  0  0  0  0
    5.1350   -2.6157    0.0000 O   0  0  0  0  0  0  0  0  0  0  0  0
    4.2690   -5.1157    0.0000 O   0  0  0  0  0  0  0  0  0  0  0  0
    2.5369   -4.1157    0.0000 O   0  0  0  0  0  0  0  0  0  0  0  0
    2.5369   -2.1157    0.0000 O   0  0  0  0  0  0  0  0  0  0  0  0
   17.3390    0.3845    0.0000 C   0  0  2  0  0  0  0  0  0  0  0  0
   18.2011   -0.1222    0.0000 C   0  0  1  0  0  0  0  0  0  0  0  0
   19.1150    0.3776    0.0000 C   0  0  2  0  0  0  0  0  0  0  0  0
   16.4691   -0.1088    0.0000 C   0  0  1  0  0  0  0  0  0  0  0  0
   19.1311    1.4192    0.0000 C   0  0  2  0  0  0  0  0  0  0  0  0
   17.3309    1.4261    0.0000 C   0  0  0  0  0  0  0  0  0  0  0  0
   20.0707    1.9616    0.0000 C   0  0  1  0  0  0  0  0  0  0  0  0
   18.2330    1.9469    0.0000 C   0  0  0  0  0  0  0  0  0  0  0  0
   16.4614   -1.1088    0.0000 C   0  0  0  0  0  0  0  0  0  0  0  0
   15.5634   -1.6365    0.0000 C   0  0  1  0  0  0  0  0  0  0  0  0
   18.1934   -1.1221    0.0000 C   0  0  0  0  0  0  0  0  0  0  0  0
   20.0375   -0.1936    0.0000 C   0  0  0  0  0  0  0  0  0  0  0  0
   15.5793    0.4327    0.0000 C   0  0  0  0  0  0  0  0  0  0  0  0
   14.6613   -1.1157    0.0000 C   0  0  1  0  0  0  0  0  0  0  0  0
   16.7021    1.1555    0.0000 C   0  0  0  0  0  0  0  0  0  0  0  0
   14.6693   -0.0741    0.0000 C   0  0  0  0  0  0  0  0  0  0  0  0
   21.0061    1.4119    0.0000 C   0  0  2  0  0  0  0  0  0  0  0  0
   20.9894    0.3271    0.0000 C   0  0  2  0  0  0  0  0  0  0  0  0
   19.0996   -0.6222    0.0000 C   0  0  0  0  0  0  0  0  0  0  0  0
   17.3236   -1.6154    0.0000 C   0  0  0  0  0  0  0  0  0  0  0  0
   16.1343    0.8335    0.0000 C   0  0  0  0  0  0  0  0  0  0  0  0
   15.5801   -2.7214    0.0000 C   0  0  2  0  0  0  0  0  0  0  0  0
   13.7134   -1.6437    0.0000 C   0  0  0  0  0  0  0  0  0  0  0  0
   20.5740    2.8257    0.0000 C   0  0  0  0  0  0  0  0  0  0  0  0
   14.6447   -3.2711    0.0000 C   0  0  1  0  0  0  0  0  0  0  0  0
   19.5740    2.8296    0.0000 C   0  0  0  0  0  0  0  0  0  0  0  0
   13.7050   -2.7286    0.0000 C   0  0  0  0  0  0  0  0  0  0  0  0
   13.7953   -0.6157    0.0000 C   0  0  0  0  0  0  0  0  0  0  0  0
   16.4518   -3.2114    0.0000 C   0  0  0  0  0  0  0  0  0  0  0  0
   14.6485   -4.2711    0.0000 C   0  0  0  0  0  0  0  0  0  0  0  0
   12.0632   -0.6157    0.0000 C   0  0  2  0  0  0  0  0  0  0  0  0
   20.5807    4.5578    0.0000 C   0  0  0  0  0  0  0  0  0  0  0  0
   12.0632    0.3843    0.0000 C   0  0  1  0  0  0  0  0  0  0  0  0
   20.0840    5.4257    0.0000 C   0  0  0  0  0  0  0  0  0  0  0  0
   11.1972    0.8843    0.0000 C   0  0  2  0  0  0  0  0  0  0  0  0
   10.3312   -0.6157    0.0000 C   0  0  1  0  0  0  0  0  0  0  0  0
   10.3312    0.3843    0.0000 C   0  0  1  0  0  0  0  0  0  0  0  0
    9.4651   -1.1157    0.0000 C   0  0  0  0  0  0  0  0  0  0  0  0
    8.5991   -2.6157    0.0000 C   0  0  2  0  0  0  0  0  0  0  0  0
    8.5991   -3.6157    0.0000 C   0  0  1  0  0  0  0  0  0  0  0  0
    7.7331   -4.1157    0.0000 C   0  0  2  0  0  0  0  0  0  0  0  0
    6.8671   -2.6157    0.0000 C   0  0  1  0  0  0  0  0  0  0  0  0
    6.8671   -3.6157    0.0000 C   0  0  1  0  0  0  0  0  0  0  0  0
    6.0010   -2.1157    0.0000 C   0  0  0  0  0  0  0  0  0  0  0  0
    5.1350   -3.6157    0.0000 C   0  0  2  0  0  0  0  0  0  0  0  0
    4.2690   -4.1157    0.0000 C   0  0  1  0  0  0  0  0  0  0  0  0
    3.4030   -3.6157    0.0000 C   0  0  1  0  0  0  0  0  0  0  0  0
    4.2690   -2.1157    0.0000 C   0  0  2  0  0  0  0  0  0  0  0  0
    3.4030   -2.6157    0.0000 C   0  0  2  0  0  0  0  0  0  0  0  0
    4.2690   -1.1157    0.0000 C   0  0  0  0  0  0  0  0  0  0  0  0
   18.9306   -0.5585    0.0000 H   0  0  0  0  0  0  0  0  0  0  0  0
   19.1343    2.2691    0.0000 H   0  0  0  0  0  0  0  0  0  0  0  0
   17.1174    2.0082    0.0000 H   0  0  0  0  0  0  0  0  0  0  0  0
   16.7209    1.3153    0.0000 H   0  0  0  0  0  0  0  0  0  0  0  0
   18.6340    2.4198    0.0000 H   0  0  0  0  0  0  0  0  0  0  0  0
   17.8357    2.4229    0.0000 H   0  0  0  0  0  0  0  0  0  0  0  0
   16.3044   -2.0530    0.0000 H   0  0  0  0  0  0  0  0  0  0  0  0
   18.4010   -1.7064    0.0000 H   0  0  0  0  0  0  0  0  0  0  0  0
   18.8048   -1.0192    0.0000 H   0  0  0  0  0  0  0  0  0  0  0  0
   19.6257   -0.6571    0.0000 H   0  0  0  0  0  0  0  0  0  0  0  0
   20.4237   -0.6786    0.0000 H   0  0  0  0  0  0  0  0  0  0  0  0
   15.9875    0.8994    0.0000 H   0  0  0  0  0  0  0  0  0  0  0  0
   15.1894    0.9148    0.0000 H   0  0  0  0  0  0  0  0  0  0  0  0
   17.1801    1.5503    0.0000 H   0  0  0  0  0  0  0  0  0  0  0  0
   16.3073    1.6335    0.0000 H   0  0  0  0  0  0  0  0  0  0  0  0
   16.2241    0.7606    0.0000 H   0  0  0  0  0  0  0  0  0  0  0  0
   14.4648    0.5112    0.0000 H   0  0  0  0  0  0  0  0  0  0  0  0
   14.0577   -0.1755    0.0000 H   0  0  0  0  0  0  0  0  0  0  0  0
   21.5388    1.0947    0.0000 H   0  0  0  0  0  0  0  0  0  0  0  0
   20.9762   -0.2928    0.0000 H   0  0  0  0  0  0  0  0  0  0  0  0
   18.4797   -0.6127    0.0000 H   0  0  0  0  0  0  0  0  0  0  0  0
   19.0900   -1.2422    0.0000 H   0  0  0  0  0  0  0  0  0  0  0  0
   19.7195   -0.6318    0.0000 H   0  0  0  0  0  0  0  0  0  0  0  0
   17.3188   -2.2354    0.0000 H   0  0  0  0  0  0  0  0  0  0  0  0
   16.7186    1.0410    0.0000 H   0  0  0  0  0  0  0  0  0  0  0  0
   15.9268    1.4177    0.0000 H   0  0  0  0  0  0  0  0  0  0  0  0
   15.5501    0.6259    0.0000 H   0  0  0  0  0  0  0  0  0  0  0  0
   16.1128   -2.4042    0.0000 H   0  0  0  0  0  0  0  0  0  0  0  0
   13.5089   -1.0584    0.0000 H   0  0  0  0  0  0  0  0  0  0  0  0
   13.1018   -1.7450    0.0000 H   0  0  0  0  0  0  0  0  0  0  0  0
   21.0474    2.4254    0.0000 H   0  0  0  0  0  0  0  0  0  0  0  0
   21.0505    3.2224    0.0000 H   0  0  0  0  0  0  0  0  0  0  0  0
   14.1083   -3.5822    0.0000 H   0  0  0  0  0  0  0  0  0  0  0  0
   20.1122    3.1375    0.0000 H   0  0  0  0  0  0  0  0  0  0  0  0
   19.2661    3.3677    0.0000 H   0  0  0  0  0  0  0  0  0  0  0  0
   19.0359    2.5217    0.0000 H   0  0  0  0  0  0  0  0  0  0  0  0
   13.0950   -2.6178    0.0000 H   0  0  0  0  0  0  0  0  0  0  0  0
   13.4915   -3.3107    0.0000 H   0  0  0  0  0  0  0  0  0  0  0  0
   16.1481   -3.7518    0.0000 H   0  0  0  0  0  0  0  0  0  0  0  0
   16.9923   -3.5151    0.0000 H   0  0  0  0  0  0  0  0  0  0  0  0
   16.7556   -2.6709    0.0000 H   0  0  0  0  0  0  0  0  0  0  0  0
   22.4112    1.5857    0.0000 H   0  0  0  0  0  0  0  0  0  0  0  0
   21.8337   -0.8094    0.0000 H   0  0  0  0  0  0  0  0  0  0  0  0
   14.0285   -4.2735    0.0000 H   0  0  0  0  0  0  0  0  0  0  0  0
   14.6509   -4.8911    0.0000 H   0  0  0  0  0  0  0  0  0  0  0  0
   15.2685   -4.2687    0.0000 H   0  0  0  0  0  0  0  0  0  0  0  0
   12.6002   -0.3057    0.0000 H   0  0  0  0  0  0  0  0  0  0  0  0
   12.0632    1.0043    0.0000 H   0  0  0  0  0  0  0  0  0  0  0  0
   20.6222    5.7336    0.0000 H   0  0  0  0  0  0  0  0  0  0  0  0
   19.7761    5.9638    0.0000 H   0  0  0  0  0  0  0  0  0  0  0  0
   19.5459    5.1178    0.0000 H   0  0  0  0  0  0  0  0  0  0  0  0
   10.6603    1.1943    0.0000 H   0  0  0  0  0  0  0  0  0  0  0  0
   10.3312   -1.2357    0.0000 H   0  0  0  0  0  0  0  0  0  0  0  0
    9.7942    0.0743    0.0000 H   0  0  0  0  0  0  0  0  0  0  0  0
   12.9292    1.5043    0.0000 H   0  0  0  0  0  0  0  0  0  0  0  0
    9.2531   -0.5331    0.0000 H   0  0  0  0  0  0  0  0  0  0  0  0
    8.8546   -1.2234    0.0000 H   0  0  0  0  0  0  0  0  0  0  0  0
   11.7341    2.1943    0.0000 H   0  0  0  0  0  0  0  0  0  0  0  0
    9.4651    1.5043    0.0000 H   0  0  0  0  0  0  0  0  0  0  0  0
    8.5991   -1.9957    0.0000 H   0  0  0  0  0  0  0  0  0  0  0  0
    9.1360   -3.3057    0.0000 H   0  0  0  0  0  0  0  0  0  0  0  0
    8.2700   -4.4257    0.0000 H   0  0  0  0  0  0  0  0  0  0  0  0
    6.8671   -1.9957    0.0000 H   0  0  0  0  0  0  0  0  0  0  0  0
    6.3301   -3.3057    0.0000 H   0  0  0  0  0  0  0  0  0  0  0  0
   10.0021   -3.8057    0.0000 H   0  0  0  0  0  0  0  0  0  0  0  0
    5.3905   -2.0081    0.0000 H   0  0  0  0  0  0  0  0  0  0  0  0
    5.7890   -2.6983    0.0000 H   0  0  0  0  0  0  0  0  0  0  0  0
    8.2700   -5.4257    0.0000 H   0  0  0  0  0  0  0  0  0  0  0  0
    5.1350   -4.2357    0.0000 H   0  0  0  0  0  0  0  0  0  0  0  0
    3.7320   -4.4257    0.0000 H   0  0  0  0  0  0  0  0  0  0  0  0
    6.5380   -0.8057    0.0000 H   0  0  0  0  0  0  0  0  0  0  0  0
    2.8660   -3.3057    0.0000 H   0  0  0  0  0  0  0  0  0  0  0  0
    4.8059   -1.8057    0.0000 H   0  0  0  0  0  0  0  0  0  0  0  0
    3.4030   -1.9957    0.0000 H   0  0  0  0  0  0  0  0  0  0  0  0
    3.7320   -5.4257    0.0000 H   0  0  0  0  0  0  0  0  0  0  0  0
    4.8890   -1.1157    0.0000 H   0  0  0  0  0  0  0  0  0  0  0  0
    4.2690   -0.4957    0.0000 H   0  0  0  0  0  0  0  0  0  0  0  0
    3.6490   -1.1157    0.0000 H   0  0  0  0  0  0  0  0  0  0  0  0
    2.0000   -3.8057    0.0000 H   0  0  0  0  0  0  0  0  0  0  0  0
    2.5369   -1.4957    0.0000 H   0  0  0  0  0  0  0  0  0  0  0  0
 37  1  1  1  0  0  0
  1112  1  0  0  0  0
 38  2  1  6  0  0  0
  2113  1  0  0  0  0
  3 44  1  0  0  0  0
  3 52  1  0  0  0  0
  4 48  1  0  0  0  0
 51  4  1  6  0  0  0
  5 48  2  0  0  0  0
  6 51  1  0  0  0  0
  6 56  1  0  0  0  0
  7 52  2  0  0  0  0
 53  8  1  1  0  0  0
  8125  1  0  0  0  0
 55  9  1  6  0  0  0
  9128  1  0  0  0  0
 57 10  1  1  0  0  0
 10129  1  0  0  0  0
 11 58  1  0  0  0  0
 59 11  1  1  0  0  0
 12 59  1  0  0  0  0
 12 62  1  0  0  0  0
 60 13  1  6  0  0  0
 13135  1  0  0  0  0
 63 14  1  6  0  0  0
 65 14  1  1  0  0  0
 61 15  1  1  0  0  0
 15138  1  0  0  0  0
 16 64  1  0  0  0  0
 16141  1  0  0  0  0
 17 65  1  0  0  0  0
 17 68  1  0  0  0  0
 66 18  1  6  0  0  0
 18145  1  0  0  0  0
 67 19  1  6  0  0  0
 19149  1  0  0  0  0
 69 20  1  1  0  0  0
 20150  1  0  0  0  0
 21 22  1  0  0  0  0
 21 24  1  0  0  0  0
 21 26  1  0  0  0  0
 21 35  1  1  0  0  0
 22 23  1  0  0  0  0
 22 31  1  0  0  0  0
 22 71  1  6  0  0  0
 23 25  1  0  0  0  0
 23 32  1  0  0  0  0
 23 39  1  1  0  0  0
 24 29  1  0  0  0  0
 24 33  1  0  0  0  0
 24 41  1  6  0  0  0
 25 27  1  0  0  0  0
 25 28  1  0  0  0  0
 25 72  1  6  0  0  0
 26 28  1  0  0  0  0
 26 73  1  0  0  0  0
 26 74  1  0  0  0  0
 27 37  1  0  0  0  0
 27 44  1  0  0  0  0
 27 46  1  1  0  0  0
 28 75  1  0  0  0  0
 28 76  1  0  0  0  0
 29 30  1  0  0  0  0
 29 40  2  0  0  0  0
 30 34  1  0  0  0  0
 30 42  1  0  0  0  0
 30 77  1  1  0  0  0
 31 40  1  0  0  0  0
 31 78  1  0  0  0  0
 31 79  1  0  0  0  0
 32 38  1  0  0  0  0
 32 80  1  0  0  0  0
 32 81  1  0  0  0  0
 33 36  1  0  0  0  0
 33 82  1  0  0  0  0
 33 83  1  0  0  0  0
 34 36  1  0  0  0  0
 34 43  1  0  0  0  0
 34 48  1  1  0  0  0
 35 84  1  0  0  0  0
 35 85  1  0  0  0  0
 35 86  1  0  0  0  0
 36 87  1  0  0  0  0
 36 88  1  0  0  0  0
 37 38  1  0  0  0  0
 37 89  1  0  0  0  0
 38 90  1  0  0  0  0
 39 91  1  0  0  0  0
 39 92  1  0  0  0  0
 39 93  1  0  0  0  0
 40 94  1  0  0  0  0
 41 95  1  0  0  0  0
 41 96  1  0  0  0  0
 41 97  1  0  0  0  0
 42 45  1  0  0  0  0
 42 49  1  1  0  0  0
 42 98  1  0  0  0  0
 43 47  1  0  0  0  0
 43 99  1  0  0  0  0
 43100  1  0  0  0  0
 44101  1  0  0  0  0
 44102  1  0  0  0  0
 45 47  1  0  0  0  0
 45 50  1  6  0  0  0
 45103  1  0  0  0  0
 46104  1  0  0  0  0
 46105  1  0  0  0  0
 46106  1  0  0  0  0
 47107  1  0  0  0  0
 47108  1  0  0  0  0
 49109  1  0  0  0  0
 49110  1  0  0  0  0
 49111  1  0  0  0  0
 50114  1  0  0  0  0
 50115  1  0  0  0  0
 50116  1  0  0  0  0
 51 53  1  0  0  0  0
 51117  1  0  0  0  0
 52 54  1  0  0  0  0
 53 55  1  0  0  0  0
 53118  1  0  0  0  0
 54119  1  0  0  0  0
 54120  1  0  0  0  0
 54121  1  0  0  0  0
 55 57  1  0  0  0  0
 55122  1  0  0  0  0
 56 57  1  0  0  0  0
 56 58  1  6  0  0  0
 56123  1  0  0  0  0
 57124  1  0  0  0  0
 58126  1  0  0  0  0
 58127  1  0  0  0  0
 59 60  1  0  0  0  0
 59130  1  0  0  0  0
 60 61  1  0  0  0  0
 60131  1  0  0  0  0
 61 63  1  0  0  0  0
 61132  1  0  0  0  0
 62 63  1  0  0  0  0
 62 64  1  1  0  0  0
 62133  1  0  0  0  0
 63134  1  0  0  0  0
 64136  1  0  0  0  0
 64137  1  0  0  0  0
 65 66  1  0  0  0  0
 65139  1  0  0  0  0
 66 67  1  0  0  0  0
 66140  1  0  0  0  0
 67 69  1  0  0  0  0
 67142  1  0  0  0  0
 68 69  1  0  0  0  0
 68 70  1  6  0  0  0
 68143  1  0  0  0  0
 69144  1  0  0  0  0
 70146  1  0  0  0  0
 70147  1  0  0  0  0
 70148  1  0  0  0  0
M  END
> <PUBCHEM_COMPOUND_CID>
101103169

> <PUBCHEM_COMPOUND_CANONICALIZED>
1

> <PUBCHEM_CACTVS_COMPLEXITY>
1940

> <PUBCHEM_CACTVS_HBOND_ACCEPTOR>
20

> <PUBCHEM_CACTVS_HBOND_DONOR>
11

> <PUBCHEM_CACTVS_ROTATABLE_BOND>
12

> <PUBCHEM_CACTVS_SUBSKEYS>
AAADcfB8PgAAAAAAAAAAAAAAAAAAAAAAAAA0aNGCAAAAAADAAAAAGgAACAAADxSwgAMCCAAABgCIAiDSCAAAAAAgAAAACAEAAAgREBIAAQAiQAAFgAAPAAPI6PyPgAAAAAAAAADAAAYAADCAAAAAAAAAAA==

> <PUBCHEM_IUPAC_OPENEYE_NAME>
[(2S,3R,4S,5S,6R)-6-[[(2R,3R,4R,5S,6R)-3,4-dihydroxy-6-(hydroxymethyl)-5-[(2S,3R,4R,5R,6S)-3,4,5-trihydroxy-6-methyl-tetrahydropyran-2-yl]oxy-tetrahydropyran-2-yl]oxymethyl]-3,4,5-trihydroxy-tetrahydropyran-2-yl] (1S,2R,4aS,6aR,6aS,6bR,8aR,9R,10R,11R,12aR,14bS)-9-(acetoxymethyl)-10,11-dihydroxy-1,2,6a,6b,9,12a-hexamethyl-2,3,4,5,6,6a,7,8,8a,10,11,12,13,14b-tetradecahydro-1H-picene-4a-carboxylate

> <PUBCHEM_IUPAC_CAS_NAME>
(1S,2R,4aS,6aR,6aS,6bR,8aR,9R,10R,11R,12aR,14bS)-9-(acetyloxymethyl)-10,11-dihydroxy-1,2,6a,6b,9,12a-hexamethyl-2,3,4,5,6,6a,7,8,8a,10,11,12,13,14b-tetradecahydro-1H-picene-4a-carboxylic acid [(2S,3R,4S,5S,6R)-6-[[(2R,3R,4R,5S,6R)-3,4-dihydroxy-6-(hydroxymethyl)-5-[[(2S,3R,4R,5R,6S)-3,4,5-trihydroxy-6-methyl-2-oxanyl]oxy]-2-oxanyl]oxymethyl]-3,4,5-trihydroxy-2-oxanyl] ester

> <PUBCHEM_IUPAC_NAME_MARKUP>
[(2<I>S</I>,3<I>R</I>,4<I>S</I>,5<I>S</I>,6<I>R</I>)-6-[[(2<I>R</I>,3<I>R</I>,4<I>R</I>,5<I>S</I>,6<I>R</I>)-3,4-dihydroxy-6-(hydroxymethyl)-5-[(2<I>S</I>,3<I>R</I>,4<I>R</I>,5<I>R</I>,6<I>S</I>)-3,4,5-trihydroxy-6-methyloxan-2-yl]oxyoxan-2-yl]oxymethyl]-3,4,5-trihydroxyoxan-2-yl] (1<I>S</I>,2<I>R</I>,4<I>a</I><I>S</I>,6<I>a</I><I>R</I>,6<I>a</I><I>S</I>,6<I>b</I><I>R</I>,8<I>a</I><I>R</I>,9<I>R</I>,10<I>R</I>,11<I>R</I>,12<I>a</I><I>R</I>,14<I>b</I><I>S</I>)-9-(acetyloxymethyl)-10,11-dihydroxy-1,2,6<I>a</I>,6<I>b</I>,9,12<I>a</I>-hexamethyl-2,3,4,5,6,6<I>a</I>,7,8,8<I>a</I>,10,11,12,13,14<I>b</I>-tetradecahydro-1<I>H</I>-picene-4<I>a</I>-carboxylate

> <PUBCHEM_IUPAC_NAME>
[(2S,3R,4S,5S,6R)-6-[[(2R,3R,4R,5S,6R)-3,4-dihydroxy-6-(hydroxymethyl)-5-[(2S,3R,4R,5R,6S)-3,4,5-trihydroxy-6-methyloxan-2-yl]oxyoxan-2-yl]oxymethyl]-3,4,5-trihydroxyoxan-2-yl] (1S,2R,4aS,6aR,6aS,6bR,8aR,9R,10R,11R,12aR,14bS)-9-(acetyloxymethyl)-10,11-dihydroxy-1,2,6a,6b,9,12a-hexamethyl-2,3,4,5,6,6a,7,8,8a,10,11,12,13,14b-tetradecahydro-1H-picene-4a-carboxylate

> <PUBCHEM_IUPAC_SYSTEMATIC_NAME>
[(2S,3R,4S,5S,6R)-6-[[(2R,3R,4R,5S,6R)-6-(hydroxymethyl)-5-[(2S,3R,4R,5R,6S)-6-methyl-3,4,5-tris(oxidanyl)oxan-2-yl]oxy-3,4-bis(oxidanyl)oxan-2-yl]oxymethyl]-3,4,5-tris(oxidanyl)oxan-2-yl] (1S,2R,4aS,6aR,6aS,6bR,8aR,9R,10R,11R,12aR,14bS)-9-(acetyloxymethyl)-1,2,6a,6b,9,12a-hexamethyl-10,11-bis(oxidanyl)-2,3,4,5,6,6a,7,8,8a,10,11,12,13,14b-tetradecahydro-1H-picene-4a-carboxylate

> <PUBCHEM_IUPAC_TRADITIONAL_NAME>
(1S,2R,4aS,6aR,6aS,6bR,8aR,9R,10R,11R,12aR,14bS)-9-(acetoxymethyl)-10,11-dihydroxy-1,2,6a,6b,9,12a-hexamethyl-2,3,4,5,6,6a,7,8,8a,10,11,12,13,14b-tetradecahydro-1H-picene-4a-carboxylic acid [(2S,3R,4S,5S,6R)-6-[[(2R,3R,4R,5S,6R)-3,4-dihydroxy-6-methylol-5-[(2S,3R,4R,5R,6S)-3,4,5-trihydroxy-6-methyl-tetrahydropyran-2-yl]oxy-tetrahydropyran-2-yl]oxymethyl]-3,4,5-trihydroxy-tetrahydropyran-2-yl] ester

> <PUBCHEM_IUPAC_INCHI>
InChI=1S/C50H80O20/c1-21-11-14-50(16-15-48(7)25(31(50)22(21)2)9-10-30-46(5)17-26(53)41(62)47(6,20-65-24(4)52)29(46)12-13-49(30,48)8)45(63)70-44-38(60)35(57)33(55)28(68-44)19-64-42-39(61)36(58)40(27(18-51)67-42)69-43-37(59)34(56)32(54)23(3)66-43/h9,21-23,26-44,51,53-62H,10-20H2,1-8H3/t21-,22+,23+,26-,27-,28-,29-,30-,31+,32+,33-,34-,35+,36-,37-,38-,39-,40-,41+,42-,43+,44+,46+,47+,48-,49-,50+/m1/s1

> <PUBCHEM_IUPAC_INCHIKEY>
HUHPZZGDDVIBQX-QLRYCWKXSA-N

> <PUBCHEM_XLOGP3_AA>
0.1

> <PUBCHEM_EXACT_MASS>
1000.524295

> <PUBCHEM_MOLECULAR_FORMULA>
C50H80O20

> <PUBCHEM_MOLECULAR_WEIGHT>
1001.2

> <PUBCHEM_OPENEYE_CAN_SMILES>
CC1CCC2(CCC3(C(=CCC4C3(CCC5C4(CC(C(C5(C)COC(=O)C)O)O)C)C)C2C1C)C)C(=O)OC6C(C(C(C(O6)COC7C(C(C(C(O7)CO)OC8C(C(C(C(O8)C)O)O)O)O)O)O)O)O

> <PUBCHEM_OPENEYE_ISO_SMILES>
C[C@@H]1CC[C@@]2(CC[C@@]3(C(=CC[C@H]4[C@]3(CC[C@@H]5[C@@]4(C[C@H]([C@@H]([C@@]5(C)COC(=O)C)O)O)C)C)[C@@H]2[C@H]1C)C)C(=O)O[C@H]6[C@@H]([C@H]([C@@H]([C@H](O6)CO[C@H]7[C@@H]([C@H]([C@@H]([C@H](O7)CO)O[C@H]8[C@@H]([C@@H]([C@H]([C@@H](O8)C)O)O)O)O)O)O)O)O

> <PUBCHEM_CACTVS_TPSA>
321

> <PUBCHEM_MONOISOTOPIC_WEIGHT>
1000.524295

> <PUBCHEM_TOTAL_CHARGE>
0

> <PUBCHEM_HEAVY_ATOM_COUNT>
70

> <PUBCHEM_ATOM_DEF_STEREO_COUNT>
27

> <PUBCHEM_ATOM_UDEF_STEREO_COUNT>
0

> <PUBCHEM_BOND_DEF_STEREO_COUNT>
0

> <PUBCHEM_BOND_UDEF_STEREO_COUNT>
0

> <PUBCHEM_ISOTOPIC_ATOM_COUNT>
0

> <PUBCHEM_COMPONENT_COUNT>
1

> <PUBCHEM_CACTVS_TAUTO_COUNT>
-1

> <PUBCHEM_COORDINATE_TYPE>
1
5
255

> <PUBCHEM_BONDANNOTATIONS>
37  1  5
57  10  5
59  11  5
60  13  6
63  14  6
65  14  5
61  15  5
66  18  6
67  19  6
38  2  6
69  20  5
21  35  5
22  71  6
23  39  5
24  41  6
25  72  6
27  46  5
30  77  5
34  48  5
51  4  6
42  49  5
45  50  6
56  58  6
62  64  5
68  70  6
53  8  5
55  9  6

$$$$
