102212085
  -OEChem-11212001212D

125131  0     1  0  0  0  0  0999 V2000
    3.2715    6.1168    0.0000 O   0  0  0  0  0  0  0  0  0  0  0  0
    5.0988    7.1346    0.0000 O   0  0  0  0  0  0  0  0  0  0  0  0
    2.6200    3.6616    0.0000 O   0  0  0  0  0  0  0  0  0  0  0  0
   10.3591   -0.1242    0.0000 O   0  0  0  0  0  0  0  0  0  0  0  0
    8.6271   -0.1242    0.0000 O   0  0  0  0  0  0  0  0  0  0  0  0
    9.4931   -1.6242    0.0000 O   0  0  0  0  0  0  0  0  0  0  0  0
   12.0912   -1.1242    0.0000 O   0  0  0  0  0  0  0  0  0  0  0  0
   12.0912   -3.1242    0.0000 O   0  0  0  0  0  0  0  0  0  0  0  0
   10.3591   -4.1242    0.0000 O   0  0  0  0  0  0  0  0  0  0  0  0
    8.6271   -4.1242    0.0000 O   0  0  0  0  0  0  0  0  0  0  0  0
    6.8950   -4.1242    0.0000 O   0  0  0  0  0  0  0  0  0  0  0  0
    8.6271   -6.1242    0.0000 O   0  0  0  0  0  0  0  0  0  0  0  0
    6.8950   -7.1242    0.0000 O   0  0  0  0  0  0  0  0  0  0  0  0
    5.1630   -6.1242    0.0000 O   0  0  0  0  0  0  0  0  0  0  0  0
    5.1630   -3.1242    0.0000 O   0  0  0  0  0  0  0  0  0  0  0  0
    6.8550    2.9447    0.0000 C   0  0  2  0  0  0  0  0  0  0  0  0
    6.8628    3.9446    0.0000 C   0  0  1  0  0  0  0  0  0  0  0  0
    5.9730    4.4862    0.0000 C   0  0  2  0  0  0  0  0  0  0  0  0
    7.7172    2.4380    0.0000 C   0  0  1  0  0  0  0  0  0  0  0  0
    5.0630    3.9793    0.0000 C   0  0  1  0  0  0  0  0  0  0  0  0
    5.9570    2.4169    0.0000 C   0  0  0  0  0  0  0  0  0  0  0  0
    8.5870    2.9313    0.0000 C   0  0  0  0  0  0  0  0  0  0  0  0
    5.0549    2.9377    0.0000 C   0  0  0  0  0  0  0  0  0  0  0  0
    4.1233    4.5218    0.0000 C   0  0  1  0  0  0  0  0  0  0  0  0
    9.4931    2.4175    0.0000 C   0  0  1  0  0  0  0  0  0  0  0  0
    7.7326    4.4380    0.0000 C   0  0  0  0  0  0  0  0  0  0  0  0
    6.0064    5.5707    0.0000 C   0  0  0  0  0  0  0  0  0  0  0  0
    7.6931    1.3967    0.0000 C   0  0  0  0  0  0  0  0  0  0  0  0
    9.4931    1.3758    0.0000 C   0  0  1  0  0  0  0  0  0  0  0  0
    6.5059    2.0076    0.0000 C   0  0  0  0  0  0  0  0  0  0  0  0
    8.5870    0.8620    0.0000 C   0  0  0  0  0  0  0  0  0  0  0  0
    4.1317    5.6068    0.0000 C   0  0  2  0  0  0  0  0  0  0  0  0
    8.5948    3.9313    0.0000 C   0  0  0  0  0  0  0  0  0  0  0  0
    5.0796    6.1347    0.0000 C   0  0  2  0  0  0  0  0  0  0  0  0
    6.8466    4.9728    0.0000 C   0  0  0  0  0  0  0  0  0  0  0  0
    7.0685    1.6770    0.0000 C   0  0  0  0  0  0  0  0  0  0  0  0
   10.4243    2.9744    0.0000 C   0  0  2  0  0  0  0  0  0  0  0  0
   10.4243    0.8189    0.0000 C   0  0  0  0  0  0  0  0  0  0  0  0
   11.3681    2.4392    0.0000 C   0  0  1  0  0  0  0  0  0  0  0  0
    3.1233    4.5257    0.0000 C   0  0  0  0  0  0  0  0  0  0  0  0
    3.6200    3.6577    0.0000 C   0  0  0  0  0  0  0  0  0  0  0  0
   11.3681    1.3542    0.0000 C   0  0  0  0  0  0  0  0  0  0  0  0
    9.4931    0.3758    0.0000 C   0  0  0  0  0  0  0  0  0  0  0  0
   10.4127    3.9743    0.0000 C   0  0  0  0  0  0  0  0  0  0  0  0
   12.2321    2.9425    0.0000 C   0  0  0  0  0  0  0  0  0  0  0  0
   10.3591   -1.1242    0.0000 C   0  0  2  0  0  0  0  0  0  0  0  0
   11.2252   -1.6242    0.0000 C   0  0  1  0  0  0  0  0  0  0  0  0
   11.2252   -2.6242    0.0000 C   0  0  2  0  0  0  0  0  0  0  0  0
    9.4931   -2.6242    0.0000 C   0  0  1  0  0  0  0  0  0  0  0  0
   10.3591   -3.1242    0.0000 C   0  0  1  0  0  0  0  0  0  0  0  0
    8.6271   -3.1242    0.0000 C   0  0  0  0  0  0  0  0  0  0  0  0
    7.7611   -4.6242    0.0000 C   0  0  2  0  0  0  0  0  0  0  0  0
    7.7611   -5.6242    0.0000 C   0  0  1  0  0  0  0  0  0  0  0  0
    6.8950   -6.1242    0.0000 C   0  0  2  0  0  0  0  0  0  0  0  0
    6.0290   -4.6242    0.0000 C   0  0  1  0  0  0  0  0  0  0  0  0
    6.0290   -5.6242    0.0000 C   0  0  1  0  0  0  0  0  0  0  0  0
    5.1630   -4.1242    0.0000 C   0  0  0  0  0  0  0  0  0  0  0  0
    7.5956    3.5140    0.0000 H   0  0  0  0  0  0  0  0  0  0  0  0
    4.3252    3.5572    0.0000 H   0  0  0  0  0  0  0  0  0  0  0  0
    5.5597    1.9410    0.0000 H   0  0  0  0  0  0  0  0  0  0  0  0
    6.3580    1.9440    0.0000 H   0  0  0  0  0  0  0  0  0  0  0  0
    4.4449    3.0485    0.0000 H   0  0  0  0  0  0  0  0  0  0  0  0
    4.8414    2.3557    0.0000 H   0  0  0  0  0  0  0  0  0  0  0  0
    9.4833    3.2674    0.0000 H   0  0  0  0  0  0  0  0  0  0  0  0
    8.1348    4.9098    0.0000 H   0  0  0  0  0  0  0  0  0  0  0  0
    7.3378    4.9160    0.0000 H   0  0  0  0  0  0  0  0  0  0  0  0
    6.6137    5.4458    0.0000 H   0  0  0  0  0  0  0  0  0  0  0  0
    6.2334    6.1476    0.0000 H   0  0  0  0  0  0  0  0  0  0  0  0
    7.0849    1.5168    0.0000 H   0  0  0  0  0  0  0  0  0  0  0  0
    7.4706    0.8180    0.0000 H   0  0  0  0  0  0  0  0  0  0  0  0
    5.9249    2.2241    0.0000 H   0  0  0  0  0  0  0  0  0  0  0  0
    6.2894    1.4266    0.0000 H   0  0  0  0  0  0  0  0  0  0  0  0
    7.0869    1.7911    0.0000 H   0  0  0  0  0  0  0  0  0  0  0  0
    8.1824    0.3922    0.0000 H   0  0  0  0  0  0  0  0  0  0  0  0
    8.9807    0.3830    0.0000 H   0  0  0  0  0  0  0  0  0  0  0  0
    3.5918    5.3020    0.0000 H   0  0  0  0  0  0  0  0  0  0  0  0
    9.1341    4.2372    0.0000 H   0  0  0  0  0  0  0  0  0  0  0  0
    4.5481    6.4540    0.0000 H   0  0  0  0  0  0  0  0  0  0  0  0
    7.1483    4.4311    0.0000 H   0  0  0  0  0  0  0  0  0  0  0  0
    7.3882    5.2745    0.0000 H   0  0  0  0  0  0  0  0  0  0  0  0
    6.5449    5.5144    0.0000 H   0  0  0  0  0  0  0  0  0  0  0  0
    6.5966    2.0792    0.0000 H   0  0  0  0  0  0  0  0  0  0  0  0
    6.6663    1.2051    0.0000 H   0  0  0  0  0  0  0  0  0  0  0  0
    7.5403    1.2748    0.0000 H   0  0  0  0  0  0  0  0  0  0  0  0
    9.8832    3.2771    0.0000 H   0  0  0  0  0  0  0  0  0  0  0  0
   10.0197    0.3491    0.0000 H   0  0  0  0  0  0  0  0  0  0  0  0
   10.8179    0.3399    0.0000 H   0  0  0  0  0  0  0  0  0  0  0  0
   11.3645    3.0591    0.0000 H   0  0  0  0  0  0  0  0  0  0  0  0
    3.2333    5.1358    0.0000 H   0  0  0  0  0  0  0  0  0  0  0  0
    2.5415    4.7400    0.0000 H   0  0  0  0  0  0  0  0  0  0  0  0
    3.0842    3.9698    0.0000 H   0  0  0  0  0  0  0  0  0  0  0  0
    3.3079    3.1220    0.0000 H   0  0  0  0  0  0  0  0  0  0  0  0
    4.1557    3.3457    0.0000 H   0  0  0  0  0  0  0  0  0  0  0  0
   11.5771    0.7705    0.0000 H   0  0  0  0  0  0  0  0  0  0  0  0
   11.9789    1.4603    0.0000 H   0  0  0  0  0  0  0  0  0  0  0  0
   11.0327    3.9815    0.0000 H   0  0  0  0  0  0  0  0  0  0  0  0
   10.4055    4.5943    0.0000 H   0  0  0  0  0  0  0  0  0  0  0  0
    9.7927    3.9672    0.0000 H   0  0  0  0  0  0  0  0  0  0  0  0
    3.2787    6.7367    0.0000 H   0  0  0  0  0  0  0  0  0  0  0  0
    5.6416    7.4342    0.0000 H   0  0  0  0  0  0  0  0  0  0  0  0
   12.5442    2.4068    0.0000 H   0  0  0  0  0  0  0  0  0  0  0  0
   12.7679    3.2546    0.0000 H   0  0  0  0  0  0  0  0  0  0  0  0
   11.9201    3.4782    0.0000 H   0  0  0  0  0  0  0  0  0  0  0  0
    2.0000    3.6640    0.0000 H   0  0  0  0  0  0  0  0  0  0  0  0
    9.8222   -0.8142    0.0000 H   0  0  0  0  0  0  0  0  0  0  0  0
   11.7621   -1.9342    0.0000 H   0  0  0  0  0  0  0  0  0  0  0  0
   11.2252   -3.2442    0.0000 H   0  0  0  0  0  0  0  0  0  0  0  0
    8.9562   -2.3142    0.0000 H   0  0  0  0  0  0  0  0  0  0  0  0
    9.8222   -3.4342    0.0000 H   0  0  0  0  0  0  0  0  0  0  0  0
   12.0912   -0.5042    0.0000 H   0  0  0  0  0  0  0  0  0  0  0  0
    8.4150   -2.5415    0.0000 H   0  0  0  0  0  0  0  0  0  0  0  0
    8.0165   -3.2318    0.0000 H   0  0  0  0  0  0  0  0  0  0  0  0
   12.6281   -2.8142    0.0000 H   0  0  0  0  0  0  0  0  0  0  0  0
   10.8961   -4.4342    0.0000 H   0  0  0  0  0  0  0  0  0  0  0  0
    8.2980   -4.9342    0.0000 H   0  0  0  0  0  0  0  0  0  0  0  0
    7.7611   -6.2442    0.0000 H   0  0  0  0  0  0  0  0  0  0  0  0
    6.3581   -6.4342    0.0000 H   0  0  0  0  0  0  0  0  0  0  0  0
    6.0290   -4.0042    0.0000 H   0  0  0  0  0  0  0  0  0  0  0  0
    6.0290   -6.2442    0.0000 H   0  0  0  0  0  0  0  0  0  0  0  0
    9.1640   -5.8142    0.0000 H   0  0  0  0  0  0  0  0  0  0  0  0
    4.5524   -4.0165    0.0000 H   0  0  0  0  0  0  0  0  0  0  0  0
    4.9509   -4.7068    0.0000 H   0  0  0  0  0  0  0  0  0  0  0  0
    6.3581   -7.4342    0.0000 H   0  0  0  0  0  0  0  0  0  0  0  0
    4.6260   -5.8142    0.0000 H   0  0  0  0  0  0  0  0  0  0  0  0
    4.6260   -2.8142    0.0000 H   0  0  0  0  0  0  0  0  0  0  0  0
 32  1  1  1  0  0  0
  1 99  1  0  0  0  0
 34  2  1  6  0  0  0
  2100  1  0  0  0  0
  3 40  1  0  0  0  0
  3104  1  0  0  0  0
  4 43  1  0  0  0  0
 46  4  1  1  0  0  0
  5 43  2  0  0  0  0
  6 46  1  0  0  0  0
  6 49  1  0  0  0  0
 47  7  1  6  0  0  0
  7110  1  0  0  0  0
 48  8  1  1  0  0  0
  8113  1  0  0  0  0
 50  9  1  6  0  0  0
  9114  1  0  0  0  0
 10 51  1  0  0  0  0
 52 10  1  1  0  0  0
 11 52  1  0  0  0  0
 11 55  1  0  0  0  0
 53 12  1  6  0  0  0
 12120  1  0  0  0  0
 54 13  1  1  0  0  0
 13123  1  0  0  0  0
 56 14  1  6  0  0  0
 14124  1  0  0  0  0
 15 57  1  0  0  0  0
 15125  1  0  0  0  0
 16 17  1  0  0  0  0
 16 19  1  0  0  0  0
 16 21  1  0  0  0  0
 16 30  1  1  0  0  0
 17 18  1  0  0  0  0
 17 26  1  0  0  0  0
 17 58  1  6  0  0  0
 18 20  1  0  0  0  0
 18 27  1  0  0  0  0
 18 35  1  1  0  0  0
 19 22  1  0  0  0  0
 19 28  1  0  0  0  0
 19 36  1  6  0  0  0
 20 23  1  0  0  0  0
 20 24  1  0  0  0  0
 20 59  1  6  0  0  0
 21 23  1  0  0  0  0
 21 60  1  0  0  0  0
 21 61  1  0  0  0  0
 22 25  1  0  0  0  0
 22 33  2  0  0  0  0
 23 62  1  0  0  0  0
 23 63  1  0  0  0  0
 24 32  1  0  0  0  0
 24 40  1  0  0  0  0
 24 41  1  1  0  0  0
 25 29  1  0  0  0  0
 25 37  1  0  0  0  0
 25 64  1  1  0  0  0
 26 33  1  0  0  0  0
 26 65  1  0  0  0  0
 26 66  1  0  0  0  0
 27 34  1  0  0  0  0
 27 67  1  0  0  0  0
 27 68  1  0  0  0  0
 28 31  1  0  0  0  0
 28 69  1  0  0  0  0
 28 70  1  0  0  0  0
 29 31  1  0  0  0  0
 29 38  1  0  0  0  0
 29 43  1  1  0  0  0
 30 71  1  0  0  0  0
 30 72  1  0  0  0  0
 30 73  1  0  0  0  0
 31 74  1  0  0  0  0
 31 75  1  0  0  0  0
 32 34  1  0  0  0  0
 32 76  1  0  0  0  0
 33 77  1  0  0  0  0
 34 78  1  0  0  0  0
 35 79  1  0  0  0  0
 35 80  1  0  0  0  0
 35 81  1  0  0  0  0
 36 82  1  0  0  0  0
 36 83  1  0  0  0  0
 36 84  1  0  0  0  0
 37 39  1  0  0  0  0
 37 44  1  1  0  0  0
 37 85  1  0  0  0  0
 38 42  1  0  0  0  0
 38 86  1  0  0  0  0
 38 87  1  0  0  0  0
 39 42  1  0  0  0  0
 39 45  1  6  0  0  0
 39 88  1  0  0  0  0
 40 89  1  0  0  0  0
 40 90  1  0  0  0  0
 41 91  1  0  0  0  0
 41 92  1  0  0  0  0
 41 93  1  0  0  0  0
 42 94  1  0  0  0  0
 42 95  1  0  0  0  0
 44 96  1  0  0  0  0
 44 97  1  0  0  0  0
 44 98  1  0  0  0  0
 45101  1  0  0  0  0
 45102  1  0  0  0  0
 45103  1  0  0  0  0
 46 47  1  0  0  0  0
 46105  1  0  0  0  0
 47 48  1  0  0  0  0
 47106  1  0  0  0  0
 48 50  1  0  0  0  0
 48107  1  0  0  0  0
 49 50  1  0  0  0  0
 49 51  1  1  0  0  0
 49108  1  0  0  0  0
 50109  1  0  0  0  0
 51111  1  0  0  0  0
 51112  1  0  0  0  0
 52 53  1  0  0  0  0
 52115  1  0  0  0  0
 53 54  1  0  0  0  0
 53116  1  0  0  0  0
 54 56  1  0  0  0  0
 54117  1  0  0  0  0
 55 56  1  0  0  0  0
 55 57  1  1  0  0  0
 55118  1  0  0  0  0
 56119  1  0  0  0  0
 57121  1  0  0  0  0
 57122  1  0  0  0  0
M  END
> <PUBCHEM_COMPOUND_CID>
102212085

> <PUBCHEM_COMPOUND_CANONICALIZED>
1

> <PUBCHEM_CACTVS_COMPLEXITY>
1530

> <PUBCHEM_CACTVS_HBOND_ACCEPTOR>
15

> <PUBCHEM_CACTVS_HBOND_DONOR>
10

> <PUBCHEM_CACTVS_ROTATABLE_BOND>
8

> <PUBCHEM_CACTVS_SUBSKEYS>
AAADcfB8PAAAAAAAAAAAAAAAAAAAAAAAAAA0aMGCAAAAAADAAAAAGgAACAAADxSwgAMCCAAABgCIAiDSCAAAAAAgAAAACAEAAAgREBIAAQAiQAAFgAAPAAPI6PyPgAAAAAAAAADAAAYAADCAAAAAAAAAAA==

> <PUBCHEM_IUPAC_OPENEYE_NAME>
[(2S,3R,4S,5S,6R)-3,4,5-trihydroxy-6-[[(2R,3R,4S,5S,6R)-3,4,5-trihydroxy-6-(hydroxymethyl)tetrahydropyran-2-yl]oxymethyl]tetrahydropyran-2-yl] (1S,2R,4aS,6aR,6aS,6bR,8aR,9R,10R,11R,12aR,14bS)-10,11-dihydroxy-9-(hydroxymethyl)-1,2,6a,6b,9,12a-hexamethyl-2,3,4,5,6,6a,7,8,8a,10,11,12,13,14b-tetradecahydro-1H-picene-4a-carboxylate

> <PUBCHEM_IUPAC_CAS_NAME>
(1S,2R,4aS,6aR,6aS,6bR,8aR,9R,10R,11R,12aR,14bS)-10,11-dihydroxy-9-(hydroxymethyl)-1,2,6a,6b,9,12a-hexamethyl-2,3,4,5,6,6a,7,8,8a,10,11,12,13,14b-tetradecahydro-1H-picene-4a-carboxylic acid [(2S,3R,4S,5S,6R)-3,4,5-trihydroxy-6-[[(2R,3R,4S,5S,6R)-3,4,5-trihydroxy-6-(hydroxymethyl)-2-oxanyl]oxymethyl]-2-oxanyl] ester

> <PUBCHEM_IUPAC_NAME_MARKUP>
[(2<I>S</I>,3<I>R</I>,4<I>S</I>,5<I>S</I>,6<I>R</I>)-3,4,5-trihydroxy-6-[[(2<I>R</I>,3<I>R</I>,4<I>S</I>,5<I>S</I>,6<I>R</I>)-3,4,5-trihydroxy-6-(hydroxymethyl)oxan-2-yl]oxymethyl]oxan-2-yl] (1<I>S</I>,2<I>R</I>,4<I>a</I><I>S</I>,6<I>a</I><I>R</I>,6<I>a</I><I>S</I>,6<I>b</I><I>R</I>,8<I>a</I><I>R</I>,9<I>R</I>,10<I>R</I>,11<I>R</I>,12<I>a</I><I>R</I>,14<I>b</I><I>S</I>)-10,11-dihydroxy-9-(hydroxymethyl)-1,2,6<I>a</I>,6<I>b</I>,9,12<I>a</I>-hexamethyl-2,3,4,5,6,6<I>a</I>,7,8,8<I>a</I>,10,11,12,13,14<I>b</I>-tetradecahydro-1<I>H</I>-picene-4<I>a</I>-carboxylate

> <PUBCHEM_IUPAC_NAME>
[(2S,3R,4S,5S,6R)-3,4,5-trihydroxy-6-[[(2R,3R,4S,5S,6R)-3,4,5-trihydroxy-6-(hydroxymethyl)oxan-2-yl]oxymethyl]oxan-2-yl] (1S,2R,4aS,6aR,6aS,6bR,8aR,9R,10R,11R,12aR,14bS)-10,11-dihydroxy-9-(hydroxymethyl)-1,2,6a,6b,9,12a-hexamethyl-2,3,4,5,6,6a,7,8,8a,10,11,12,13,14b-tetradecahydro-1H-picene-4a-carboxylate

> <PUBCHEM_IUPAC_SYSTEMATIC_NAME>
[(2S,3R,4S,5S,6R)-6-[[(2R,3R,4S,5S,6R)-6-(hydroxymethyl)-3,4,5-tris(oxidanyl)oxan-2-yl]oxymethyl]-3,4,5-tris(oxidanyl)oxan-2-yl] (1S,2R,4aS,6aR,6aS,6bR,8aR,9R,10R,11R,12aR,14bS)-9-(hydroxymethyl)-1,2,6a,6b,9,12a-hexamethyl-10,11-bis(oxidanyl)-2,3,4,5,6,6a,7,8,8a,10,11,12,13,14b-tetradecahydro-1H-picene-4a-carboxylate

> <PUBCHEM_IUPAC_TRADITIONAL_NAME>
(1S,2R,4aS,6aR,6aS,6bR,8aR,9R,10R,11R,12aR,14bS)-10,11-dihydroxy-1,2,6a,6b,9,12a-hexamethyl-9-methylol-2,3,4,5,6,6a,7,8,8a,10,11,12,13,14b-tetradecahydro-1H-picene-4a-carboxylic acid [(2S,3R,4S,5S,6R)-3,4,5-trihydroxy-6-[[(2R,3R,4S,5S,6R)-3,4,5-trihydroxy-6-methylol-tetrahydropyran-2-yl]oxymethyl]tetrahydropyran-2-yl] ester

> <PUBCHEM_IUPAC_INCHI>
InChI=1S/C42H68O15/c1-19-9-12-42(37(53)57-36-33(51)31(49)29(47)24(56-36)17-54-35-32(50)30(48)28(46)23(16-43)55-35)14-13-40(5)21(27(42)20(19)2)7-8-26-38(3)15-22(45)34(52)39(4,18-44)25(38)10-11-41(26,40)6/h7,19-20,22-36,43-52H,8-18H2,1-6H3/t19-,20+,22-,23-,24-,25-,26-,27+,28-,29-,30+,31+,32-,33-,34+,35-,36+,38+,39+,40-,41-,42+/m1/s1

> <PUBCHEM_IUPAC_INCHIKEY>
QRECZCMVJKJLJW-JNGPRRAUSA-N

> <PUBCHEM_XLOGP3_AA>
1.7

> <PUBCHEM_EXACT_MASS>
812.455821

> <PUBCHEM_MOLECULAR_FORMULA>
C42H68O15

> <PUBCHEM_MOLECULAR_WEIGHT>
813

> <PUBCHEM_OPENEYE_CAN_SMILES>
CC1CCC2(CCC3(C(=CCC4C3(CCC5C4(CC(C(C5(C)CO)O)O)C)C)C2C1C)C)C(=O)OC6C(C(C(C(O6)COC7C(C(C(C(O7)CO)O)O)O)O)O)O

> <PUBCHEM_OPENEYE_ISO_SMILES>
C[C@@H]1CC[C@@]2(CC[C@@]3(C(=CC[C@H]4[C@]3(CC[C@@H]5[C@@]4(C[C@H]([C@@H]([C@@]5(C)CO)O)O)C)C)[C@@H]2[C@H]1C)C)C(=O)O[C@H]6[C@@H]([C@H]([C@@H]([C@H](O6)CO[C@H]7[C@@H]([C@H]([C@@H]([C@H](O7)CO)O)O)O)O)O)O

> <PUBCHEM_CACTVS_TPSA>
256

> <PUBCHEM_MONOISOTOPIC_WEIGHT>
812.455821

> <PUBCHEM_TOTAL_CHARGE>
0

> <PUBCHEM_HEAVY_ATOM_COUNT>
57

> <PUBCHEM_ATOM_DEF_STEREO_COUNT>
22

> <PUBCHEM_ATOM_UDEF_STEREO_COUNT>
0

> <PUBCHEM_BOND_DEF_STEREO_COUNT>
0

> <PUBCHEM_BOND_UDEF_STEREO_COUNT>
0

> <PUBCHEM_ISOTOPIC_ATOM_COUNT>
0

> <PUBCHEM_COMPONENT_COUNT>
1

> <PUBCHEM_CACTVS_TAUTO_COUNT>
-1

> <PUBCHEM_COORDINATE_TYPE>
1
5
255

> <PUBCHEM_BONDANNOTATIONS>
32  1  5
52  10  5
53  12  6
54  13  5
56  14  6
16  30  5
17  58  6
18  35  5
19  36  6
34  2  6
20  59  6
24  41  5
25  64  5
29  43  5
37  44  5
39  45  6
46  4  5
49  51  5
55  57  5
47  7  6
48  8  5
50  9  6

$$$$
