56964357
  -OEChem-11212001272D

126132  0     1  0  0  0  0  0999 V2000
    4.1870    2.4411    0.0000 O   0  0  0  0  0  0  0  0  0  0  0  0
    3.2715    6.1168    0.0000 O   0  0  0  0  0  0  0  0  0  0  0  0
    5.0988    7.1346    0.0000 O   0  0  0  0  0  0  0  0  0  0  0  0
    2.6200    3.6616    0.0000 O   0  0  0  0  0  0  0  0  0  0  0  0
   10.3591   -0.1242    0.0000 O   0  0  0  0  0  0  0  0  0  0  0  0
    8.6271   -0.1242    0.0000 O   0  0  0  0  0  0  0  0  0  0  0  0
    9.4931   -1.6242    0.0000 O   0  0  0  0  0  0  0  0  0  0  0  0
   12.0912   -1.1242    0.0000 O   0  0  0  0  0  0  0  0  0  0  0  0
   12.0912   -3.1242    0.0000 O   0  0  0  0  0  0  0  0  0  0  0  0
   10.3591   -4.1242    0.0000 O   0  0  0  0  0  0  0  0  0  0  0  0
    8.6271   -4.1242    0.0000 O   0  0  0  0  0  0  0  0  0  0  0  0
    6.8950   -4.1242    0.0000 O   0  0  0  0  0  0  0  0  0  0  0  0
    8.6271   -6.1242    0.0000 O   0  0  0  0  0  0  0  0  0  0  0  0
    6.8950   -7.1242    0.0000 O   0  0  0  0  0  0  0  0  0  0  0  0
    5.1630   -6.1242    0.0000 O   0  0  0  0  0  0  0  0  0  0  0  0
    5.1630   -3.1242    0.0000 O   0  0  0  0  0  0  0  0  0  0  0  0
    6.8550    2.9447    0.0000 C   0  0  2  0  0  0  0  0  0  0  0  0
    5.9730    4.4862    0.0000 C   0  0  2  0  0  0  0  0  0  0  0  0
    6.8628    3.9446    0.0000 C   0  0  1  0  0  0  0  0  0  0  0  0
    7.7172    2.4380    0.0000 C   0  0  1  0  0  0  0  0  0  0  0  0
    5.0630    3.9793    0.0000 C   0  0  1  0  0  0  0  0  0  0  0  0
    5.9570    2.4169    0.0000 C   0  0  0  0  0  0  0  0  0  0  0  0
    5.0549    2.9377    0.0000 C   0  0  1  0  0  0  0  0  0  0  0  0
    4.1233    4.5218    0.0000 C   0  0  1  0  0  0  0  0  0  0  0  0
    8.5870    2.9313    0.0000 C   0  0  0  0  0  0  0  0  0  0  0  0
    6.0064    5.5707    0.0000 C   0  0  0  0  0  0  0  0  0  0  0  0
    7.7326    4.4380    0.0000 C   0  0  0  0  0  0  0  0  0  0  0  0
    9.4931    2.4175    0.0000 C   0  0  1  0  0  0  0  0  0  0  0  0
    7.6931    1.3967    0.0000 C   0  0  0  0  0  0  0  0  0  0  0  0
    9.4931    1.3758    0.0000 C   0  0  1  0  0  0  0  0  0  0  0  0
    6.5059    2.0076    0.0000 C   0  0  0  0  0  0  0  0  0  0  0  0
    4.1317    5.6068    0.0000 C   0  0  2  0  0  0  0  0  0  0  0  0
    8.5870    0.8620    0.0000 C   0  0  0  0  0  0  0  0  0  0  0  0
    5.0796    6.1347    0.0000 C   0  0  2  0  0  0  0  0  0  0  0  0
    6.8466    4.9728    0.0000 C   0  0  0  0  0  0  0  0  0  0  0  0
    8.5948    3.9313    0.0000 C   0  0  0  0  0  0  0  0  0  0  0  0
    7.0685    1.6770    0.0000 C   0  0  0  0  0  0  0  0  0  0  0  0
   10.4243    2.9744    0.0000 C   0  0  0  0  0  0  0  0  0  0  0  0
   10.4243    0.8189    0.0000 C   0  0  0  0  0  0  0  0  0  0  0  0
   11.3681    2.4392    0.0000 C   0  0  0  0  0  0  0  0  0  0  0  0
    3.1233    4.5257    0.0000 C   0  0  0  0  0  0  0  0  0  0  0  0
    3.6200    3.6577    0.0000 C   0  0  0  0  0  0  0  0  0  0  0  0
   11.3681    1.3542    0.0000 C   0  0  0  0  0  0  0  0  0  0  0  0
    9.4931    0.3758    0.0000 C   0  0  0  0  0  0  0  0  0  0  0  0
   11.8647    3.3071    0.0000 C   0  0  0  0  0  0  0  0  0  0  0  0
   12.3680    2.4430    0.0000 C   0  0  0  0  0  0  0  0  0  0  0  0
   10.3591   -1.1242    0.0000 C   0  0  2  0  0  0  0  0  0  0  0  0
   11.2252   -1.6242    0.0000 C   0  0  1  0  0  0  0  0  0  0  0  0
   11.2252   -2.6242    0.0000 C   0  0  2  0  0  0  0  0  0  0  0  0
    9.4931   -2.6242    0.0000 C   0  0  1  0  0  0  0  0  0  0  0  0
   10.3591   -3.1242    0.0000 C   0  0  1  0  0  0  0  0  0  0  0  0
    8.6271   -3.1242    0.0000 C   0  0  0  0  0  0  0  0  0  0  0  0
    7.7611   -4.6242    0.0000 C   0  0  2  0  0  0  0  0  0  0  0  0
    7.7611   -5.6242    0.0000 C   0  0  1  0  0  0  0  0  0  0  0  0
    6.8950   -6.1242    0.0000 C   0  0  2  0  0  0  0  0  0  0  0  0
    6.0290   -4.6242    0.0000 C   0  0  1  0  0  0  0  0  0  0  0  0
    6.0290   -5.6242    0.0000 C   0  0  1  0  0  0  0  0  0  0  0  0
    5.1630   -4.1242    0.0000 C   0  0  0  0  0  0  0  0  0  0  0  0
    7.5956    3.5140    0.0000 H   0  0  0  0  0  0  0  0  0  0  0  0
    4.3252    3.5572    0.0000 H   0  0  0  0  0  0  0  0  0  0  0  0
    5.5597    1.9410    0.0000 H   0  0  0  0  0  0  0  0  0  0  0  0
    6.3580    1.9440    0.0000 H   0  0  0  0  0  0  0  0  0  0  0  0
    5.0537    2.3177    0.0000 H   0  0  0  0  0  0  0  0  0  0  0  0
    6.6137    5.4458    0.0000 H   0  0  0  0  0  0  0  0  0  0  0  0
    6.2334    6.1476    0.0000 H   0  0  0  0  0  0  0  0  0  0  0  0
    8.1348    4.9098    0.0000 H   0  0  0  0  0  0  0  0  0  0  0  0
    7.3378    4.9160    0.0000 H   0  0  0  0  0  0  0  0  0  0  0  0
   10.2325    1.9982    0.0000 H   0  0  0  0  0  0  0  0  0  0  0  0
    7.0849    1.5168    0.0000 H   0  0  0  0  0  0  0  0  0  0  0  0
    7.4706    0.8180    0.0000 H   0  0  0  0  0  0  0  0  0  0  0  0
    5.9249    2.2241    0.0000 H   0  0  0  0  0  0  0  0  0  0  0  0
    6.2894    1.4266    0.0000 H   0  0  0  0  0  0  0  0  0  0  0  0
    7.0869    1.7911    0.0000 H   0  0  0  0  0  0  0  0  0  0  0  0
    3.5918    5.3020    0.0000 H   0  0  0  0  0  0  0  0  0  0  0  0
    8.1824    0.3922    0.0000 H   0  0  0  0  0  0  0  0  0  0  0  0
    8.9807    0.3830    0.0000 H   0  0  0  0  0  0  0  0  0  0  0  0
    4.5481    6.4540    0.0000 H   0  0  0  0  0  0  0  0  0  0  0  0
    7.1483    4.4311    0.0000 H   0  0  0  0  0  0  0  0  0  0  0  0
    7.3882    5.2745    0.0000 H   0  0  0  0  0  0  0  0  0  0  0  0
    6.5449    5.5144    0.0000 H   0  0  0  0  0  0  0  0  0  0  0  0
    9.1341    4.2372    0.0000 H   0  0  0  0  0  0  0  0  0  0  0  0
    6.5966    2.0792    0.0000 H   0  0  0  0  0  0  0  0  0  0  0  0
    6.6663    1.2051    0.0000 H   0  0  0  0  0  0  0  0  0  0  0  0
    7.5403    1.2748    0.0000 H   0  0  0  0  0  0  0  0  0  0  0  0
   10.8179    3.4534    0.0000 H   0  0  0  0  0  0  0  0  0  0  0  0
   10.0197    3.4442    0.0000 H   0  0  0  0  0  0  0  0  0  0  0  0
   10.0197    0.3491    0.0000 H   0  0  0  0  0  0  0  0  0  0  0  0
   10.8179    0.3399    0.0000 H   0  0  0  0  0  0  0  0  0  0  0  0
    3.2333    5.1358    0.0000 H   0  0  0  0  0  0  0  0  0  0  0  0
    2.5415    4.7400    0.0000 H   0  0  0  0  0  0  0  0  0  0  0  0
    3.0842    3.9698    0.0000 H   0  0  0  0  0  0  0  0  0  0  0  0
    3.3079    3.1220    0.0000 H   0  0  0  0  0  0  0  0  0  0  0  0
    4.1557    3.3457    0.0000 H   0  0  0  0  0  0  0  0  0  0  0  0
   11.5771    0.7705    0.0000 H   0  0  0  0  0  0  0  0  0  0  0  0
   11.9789    1.4603    0.0000 H   0  0  0  0  0  0  0  0  0  0  0  0
    4.1846    1.8211    0.0000 H   0  0  0  0  0  0  0  0  0  0  0  0
    3.2787    6.7367    0.0000 H   0  0  0  0  0  0  0  0  0  0  0  0
    5.6416    7.4342    0.0000 H   0  0  0  0  0  0  0  0  0  0  0  0
   12.4028    2.9992    0.0000 H   0  0  0  0  0  0  0  0  0  0  0  0
   12.1726    3.8452    0.0000 H   0  0  0  0  0  0  0  0  0  0  0  0
   11.3266    3.6150    0.0000 H   0  0  0  0  0  0  0  0  0  0  0  0
   12.3704    1.8230    0.0000 H   0  0  0  0  0  0  0  0  0  0  0  0
   12.9880    2.4454    0.0000 H   0  0  0  0  0  0  0  0  0  0  0  0
   12.3657    3.0630    0.0000 H   0  0  0  0  0  0  0  0  0  0  0  0
    2.0000    3.6640    0.0000 H   0  0  0  0  0  0  0  0  0  0  0  0
    9.8222   -0.8142    0.0000 H   0  0  0  0  0  0  0  0  0  0  0  0
   11.7621   -1.9342    0.0000 H   0  0  0  0  0  0  0  0  0  0  0  0
   11.2252   -3.2442    0.0000 H   0  0  0  0  0  0  0  0  0  0  0  0
    8.9562   -2.3142    0.0000 H   0  0  0  0  0  0  0  0  0  0  0  0
    9.8222   -3.4342    0.0000 H   0  0  0  0  0  0  0  0  0  0  0  0
   12.0912   -0.5042    0.0000 H   0  0  0  0  0  0  0  0  0  0  0  0
    8.4150   -2.5415    0.0000 H   0  0  0  0  0  0  0  0  0  0  0  0
    8.0165   -3.2318    0.0000 H   0  0  0  0  0  0  0  0  0  0  0  0
   12.6281   -2.8142    0.0000 H   0  0  0  0  0  0  0  0  0  0  0  0
   10.8961   -4.4342    0.0000 H   0  0  0  0  0  0  0  0  0  0  0  0
    8.2980   -4.9342    0.0000 H   0  0  0  0  0  0  0  0  0  0  0  0
    7.7611   -6.2442    0.0000 H   0  0  0  0  0  0  0  0  0  0  0  0
    6.3581   -6.4342    0.0000 H   0  0  0  0  0  0  0  0  0  0  0  0
    6.0290   -4.0042    0.0000 H   0  0  0  0  0  0  0  0  0  0  0  0
    6.0290   -6.2442    0.0000 H   0  0  0  0  0  0  0  0  0  0  0  0
    9.1640   -5.8142    0.0000 H   0  0  0  0  0  0  0  0  0  0  0  0
    4.5524   -4.0165    0.0000 H   0  0  0  0  0  0  0  0  0  0  0  0
    4.9509   -4.7068    0.0000 H   0  0  0  0  0  0  0  0  0  0  0  0
    6.3581   -7.4342    0.0000 H   0  0  0  0  0  0  0  0  0  0  0  0
    4.6260   -5.8142    0.0000 H   0  0  0  0  0  0  0  0  0  0  0  0
    4.6260   -2.8142    0.0000 H   0  0  0  0  0  0  0  0  0  0  0  0
 23  1  1  1  0  0  0
  1 96  1  0  0  0  0
 32  2  1  1  0  0  0
  2 97  1  0  0  0  0
 34  3  1  6  0  0  0
  3 98  1  0  0  0  0
  4 41  1  0  0  0  0
  4105  1  0  0  0  0
  5 44  1  0  0  0  0
 47  5  1  1  0  0  0
  6 44  2  0  0  0  0
  7 47  1  0  0  0  0
  7 50  1  0  0  0  0
 48  8  1  6  0  0  0
  8111  1  0  0  0  0
 49  9  1  1  0  0  0
  9114  1  0  0  0  0
 51 10  1  6  0  0  0
 10115  1  0  0  0  0
 11 52  1  0  0  0  0
 53 11  1  1  0  0  0
 12 53  1  0  0  0  0
 12 56  1  0  0  0  0
 54 13  1  6  0  0  0
 13121  1  0  0  0  0
 55 14  1  1  0  0  0
 14124  1  0  0  0  0
 57 15  1  6  0  0  0
 15125  1  0  0  0  0
 16 58  1  0  0  0  0
 16126  1  0  0  0  0
 17 19  1  0  0  0  0
 17 20  1  0  0  0  0
 17 22  1  0  0  0  0
 17 31  1  1  0  0  0
 18 19  1  0  0  0  0
 18 21  1  0  0  0  0
 18 26  1  0  0  0  0
 18 35  1  1  0  0  0
 19 27  1  0  0  0  0
 19 59  1  6  0  0  0
 20 25  1  0  0  0  0
 20 29  1  0  0  0  0
 20 37  1  6  0  0  0
 21 23  1  0  0  0  0
 21 24  1  0  0  0  0
 21 60  1  6  0  0  0
 22 23  1  0  0  0  0
 22 61  1  0  0  0  0
 22 62  1  0  0  0  0
 23 63  1  0  0  0  0
 24 32  1  0  0  0  0
 24 41  1  0  0  0  0
 24 42  1  1  0  0  0
 25 28  1  0  0  0  0
 25 36  2  0  0  0  0
 26 34  1  0  0  0  0
 26 64  1  0  0  0  0
 26 65  1  0  0  0  0
 27 36  1  0  0  0  0
 27 66  1  0  0  0  0
 27 67  1  0  0  0  0
 28 30  1  0  0  0  0
 28 38  1  0  0  0  0
 28 68  1  1  0  0  0
 29 33  1  0  0  0  0
 29 69  1  0  0  0  0
 29 70  1  0  0  0  0
 30 33  1  0  0  0  0
 30 39  1  0  0  0  0
 30 44  1  1  0  0  0
 31 71  1  0  0  0  0
 31 72  1  0  0  0  0
 31 73  1  0  0  0  0
 32 34  1  0  0  0  0
 32 74  1  0  0  0  0
 33 75  1  0  0  0  0
 33 76  1  0  0  0  0
 34 77  1  0  0  0  0
 35 78  1  0  0  0  0
 35 79  1  0  0  0  0
 35 80  1  0  0  0  0
 36 81  1  0  0  0  0
 37 82  1  0  0  0  0
 37 83  1  0  0  0  0
 37 84  1  0  0  0  0
 38 40  1  0  0  0  0
 38 85  1  0  0  0  0
 38 86  1  0  0  0  0
 39 43  1  0  0  0  0
 39 87  1  0  0  0  0
 39 88  1  0  0  0  0
 40 43  1  0  0  0  0
 40 45  1  0  0  0  0
 40 46  1  0  0  0  0
 41 89  1  0  0  0  0
 41 90  1  0  0  0  0
 42 91  1  0  0  0  0
 42 92  1  0  0  0  0
 42 93  1  0  0  0  0
 43 94  1  0  0  0  0
 43 95  1  0  0  0  0
 45 99  1  0  0  0  0
 45100  1  0  0  0  0
 45101  1  0  0  0  0
 46102  1  0  0  0  0
 46103  1  0  0  0  0
 46104  1  0  0  0  0
 47 48  1  0  0  0  0
 47106  1  0  0  0  0
 48 49  1  0  0  0  0
 48107  1  0  0  0  0
 49 51  1  0  0  0  0
 49108  1  0  0  0  0
 50 51  1  0  0  0  0
 50 52  1  1  0  0  0
 50109  1  0  0  0  0
 51110  1  0  0  0  0
 52112  1  0  0  0  0
 52113  1  0  0  0  0
 53 54  1  0  0  0  0
 53116  1  0  0  0  0
 54 55  1  0  0  0  0
 54117  1  0  0  0  0
 55 57  1  0  0  0  0
 55118  1  0  0  0  0
 56 57  1  0  0  0  0
 56 58  1  1  0  0  0
 56119  1  0  0  0  0
 57120  1  0  0  0  0
 58122  1  0  0  0  0
 58123  1  0  0  0  0
M  END
> <PUBCHEM_COMPOUND_CID>
56964357

> <PUBCHEM_COMPOUND_CANONICALIZED>
1

> <PUBCHEM_CACTVS_COMPLEXITY>
1580

> <PUBCHEM_CACTVS_HBOND_ACCEPTOR>
16

> <PUBCHEM_CACTVS_HBOND_DONOR>
11

> <PUBCHEM_CACTVS_ROTATABLE_BOND>
8

> <PUBCHEM_CACTVS_SUBSKEYS>
AAADcfB8PgAAAAAAAAAAAAAAAAAAAAAAAAA0aMGCAAAAAADAAAAAGgAACAAADxSwgAMCCAAABgCIAiDSCAAAAAAgAAAACAEAAAgREBIAAQAiQAAFgAAPAAPI6PyPgAAAAAAAAADAAAYAADCAAAAAAAAAAA==

> <PUBCHEM_IUPAC_OPENEYE_NAME>
[(2S,3R,4S,5S,6R)-3,4,5-trihydroxy-6-[[(2R,3R,4S,5S,6R)-3,4,5-trihydroxy-6-(hydroxymethyl)tetrahydropyran-2-yl]oxymethyl]tetrahydropyran-2-yl] (4aS,6aR,6aS,6bR,8R,8aR,9R,10R,11R,12aR,14bS)-8,10,11-trihydroxy-9-(hydroxymethyl)-2,2,6a,6b,9,12a-hexamethyl-1,3,4,5,6,6a,7,8,8a,10,11,12,13,14b-tetradecahydropicene-4a-carboxylate

> <PUBCHEM_IUPAC_CAS_NAME>
(4aS,6aR,6aS,6bR,8R,8aR,9R,10R,11R,12aR,14bS)-8,10,11-trihydroxy-9-(hydroxymethyl)-2,2,6a,6b,9,12a-hexamethyl-1,3,4,5,6,6a,7,8,8a,10,11,12,13,14b-tetradecahydropicene-4a-carboxylic acid [(2S,3R,4S,5S,6R)-3,4,5-trihydroxy-6-[[(2R,3R,4S,5S,6R)-3,4,5-trihydroxy-6-(hydroxymethyl)-2-oxanyl]oxymethyl]-2-oxanyl] ester

> <PUBCHEM_IUPAC_NAME_MARKUP>
[(2<I>S</I>,3<I>R</I>,4<I>S</I>,5<I>S</I>,6<I>R</I>)-3,4,5-trihydroxy-6-[[(2<I>R</I>,3<I>R</I>,4<I>S</I>,5<I>S</I>,6<I>R</I>)-3,4,5-trihydroxy-6-(hydroxymethyl)oxan-2-yl]oxymethyl]oxan-2-yl] (4<I>a</I><I>S</I>,6<I>a</I><I>R</I>,6<I>a</I><I>S</I>,6<I>b</I><I>R</I>,8<I>R</I>,8<I>a</I><I>R</I>,9<I>R</I>,10<I>R</I>,11<I>R</I>,12<I>a</I><I>R</I>,14<I>b</I><I>S</I>)-8,10,11-trihydroxy-9-(hydroxymethyl)-2,2,6<I>a</I>,6<I>b</I>,9,12<I>a</I>-hexamethyl-1,3,4,5,6,6<I>a</I>,7,8,8<I>a</I>,10,11,12,13,14<I>b</I>-tetradecahydropicene-4<I>a</I>-carboxylate

> <PUBCHEM_IUPAC_NAME>
[(2S,3R,4S,5S,6R)-3,4,5-trihydroxy-6-[[(2R,3R,4S,5S,6R)-3,4,5-trihydroxy-6-(hydroxymethyl)oxan-2-yl]oxymethyl]oxan-2-yl] (4aS,6aR,6aS,6bR,8R,8aR,9R,10R,11R,12aR,14bS)-8,10,11-trihydroxy-9-(hydroxymethyl)-2,2,6a,6b,9,12a-hexamethyl-1,3,4,5,6,6a,7,8,8a,10,11,12,13,14b-tetradecahydropicene-4a-carboxylate

> <PUBCHEM_IUPAC_SYSTEMATIC_NAME>
[(2S,3R,4S,5S,6R)-6-[[(2R,3R,4S,5S,6R)-6-(hydroxymethyl)-3,4,5-tris(oxidanyl)oxan-2-yl]oxymethyl]-3,4,5-tris(oxidanyl)oxan-2-yl] (4aS,6aR,6aS,6bR,8R,8aR,9R,10R,11R,12aR,14bS)-9-(hydroxymethyl)-2,2,6a,6b,9,12a-hexamethyl-8,10,11-tris(oxidanyl)-1,3,4,5,6,6a,7,8,8a,10,11,12,13,14b-tetradecahydropicene-4a-carboxylate

> <PUBCHEM_IUPAC_TRADITIONAL_NAME>
(4aS,6aR,6aS,6bR,8R,8aR,9R,10R,11R,12aR,14bS)-8,10,11-trihydroxy-2,2,6a,6b,9,12a-hexamethyl-9-methylol-1,3,4,5,6,6a,7,8,8a,10,11,12,13,14b-tetradecahydropicene-4a-carboxylic acid [(2S,3R,4S,5S,6R)-3,4,5-trihydroxy-6-[[(2R,3R,4S,5S,6R)-3,4,5-trihydroxy-6-methylol-tetrahydropyran-2-yl]oxymethyl]tetrahydropyran-2-yl] ester

> <PUBCHEM_IUPAC_INCHI>
InChI=1S/C42H68O16/c1-37(2)9-11-42(36(54)58-35-31(52)29(50)27(48)24(57-35)17-55-34-30(51)28(49)26(47)23(16-43)56-34)12-10-40(5)19(20(42)13-37)7-8-25-38(3)14-22(46)33(53)39(4,18-44)32(38)21(45)15-41(25,40)6/h7,20-35,43-53H,8-18H2,1-6H3/t20-,21+,22+,23+,24+,25+,26+,27+,28-,29-,30+,31+,32+,33-,34+,35-,38+,39-,40+,41+,42-/m0/s1

> <PUBCHEM_IUPAC_INCHIKEY>
ZYWQVWWCWIVAEF-WZLWCHHLSA-N

> <PUBCHEM_XLOGP3_AA>
0.5

> <PUBCHEM_EXACT_MASS>
828.450736

> <PUBCHEM_MOLECULAR_FORMULA>
C42H68O16

> <PUBCHEM_MOLECULAR_WEIGHT>
829

> <PUBCHEM_OPENEYE_CAN_SMILES>
CC1(CCC2(CCC3(C(=CCC4C3(CC(C5C4(CC(C(C5(C)CO)O)O)C)O)C)C2C1)C)C(=O)OC6C(C(C(C(O6)COC7C(C(C(C(O7)CO)O)O)O)O)O)O)C

> <PUBCHEM_OPENEYE_ISO_SMILES>
C[C@@]12CC[C@]3(CCC(C[C@H]3C1=CC[C@H]4[C@]2(C[C@H]([C@@H]5[C@@]4(C[C@H]([C@@H]([C@@]5(C)CO)O)O)C)O)C)(C)C)C(=O)O[C@H]6[C@@H]([C@H]([C@@H]([C@H](O6)CO[C@H]7[C@@H]([C@H]([C@@H]([C@H](O7)CO)O)O)O)O)O)O

> <PUBCHEM_CACTVS_TPSA>
277

> <PUBCHEM_MONOISOTOPIC_WEIGHT>
828.450736

> <PUBCHEM_TOTAL_CHARGE>
0

> <PUBCHEM_HEAVY_ATOM_COUNT>
58

> <PUBCHEM_ATOM_DEF_STEREO_COUNT>
21

> <PUBCHEM_ATOM_UDEF_STEREO_COUNT>
0

> <PUBCHEM_BOND_DEF_STEREO_COUNT>
0

> <PUBCHEM_BOND_UDEF_STEREO_COUNT>
0

> <PUBCHEM_ISOTOPIC_ATOM_COUNT>
0

> <PUBCHEM_COMPONENT_COUNT>
1

> <PUBCHEM_CACTVS_TAUTO_COUNT>
-1

> <PUBCHEM_COORDINATE_TYPE>
1
5
255

> <PUBCHEM_BONDANNOTATIONS>
23  1  5
51  10  6
53  11  5
54  13  6
55  14  5
57  15  6
17  31  5
18  35  5
19  59  6
32  2  5
20  37  6
21  60  6
24  42  5
28  68  5
34  3  6
30  44  5
47  5  5
50  52  5
56  58  5
48  8  6
49  9  5

$$$$
