102212086
  -OEChem-11212001312D

146153  0     1  0  0  0  0  0999 V2000
   21.8779    2.3359    0.0000 O   0  0  0  0  0  0  0  0  0  0  0  0
   21.8456    0.2444    0.0000 O   0  0  0  0  0  0  0  0  0  0  0  0
   12.9292   -0.6818    0.0000 O   0  0  0  0  0  0  0  0  0  0  0  0
   13.7953    0.8182    0.0000 O   0  0  0  0  0  0  0  0  0  0  0  0
   20.5807    4.9918    0.0000 O   0  0  0  0  0  0  0  0  0  0  0  0
   11.1972   -0.6818    0.0000 O   0  0  0  0  0  0  0  0  0  0  0  0
   12.9292    1.3182    0.0000 O   0  0  0  0  0  0  0  0  0  0  0  0
   11.1972    2.3182    0.0000 O   0  0  0  0  0  0  0  0  0  0  0  0
    9.4651    1.3182    0.0000 O   0  0  0  0  0  0  0  0  0  0  0  0
    9.4651   -1.6818    0.0000 O   0  0  0  0  0  0  0  0  0  0  0  0
    7.7331   -1.6818    0.0000 O   0  0  0  0  0  0  0  0  0  0  0  0
    9.4651   -3.6818    0.0000 O   0  0  0  0  0  0  0  0  0  0  0  0
    6.0010   -3.6818    0.0000 O   0  0  0  0  0  0  0  0  0  0  0  0
    7.7331   -4.6818    0.0000 O   0  0  0  0  0  0  0  0  0  0  0  0
    6.0010   -0.6818    0.0000 O   0  0  0  0  0  0  0  0  0  0  0  0
    5.1350   -2.1818    0.0000 O   0  0  0  0  0  0  0  0  0  0  0  0
    4.2690   -4.6818    0.0000 O   0  0  0  0  0  0  0  0  0  0  0  0
    2.5369   -3.6818    0.0000 O   0  0  0  0  0  0  0  0  0  0  0  0
    2.5369   -1.6818    0.0000 O   0  0  0  0  0  0  0  0  0  0  0  0
   17.3390    0.8185    0.0000 C   0  0  2  0  0  0  0  0  0  0  0  0
   18.2011    0.3118    0.0000 C   0  0  1  0  0  0  0  0  0  0  0  0
   19.1150    0.8116    0.0000 C   0  0  2  0  0  0  0  0  0  0  0  0
   16.4691    0.3252    0.0000 C   0  0  1  0  0  0  0  0  0  0  0  0
   19.1311    1.8531    0.0000 C   0  0  2  0  0  0  0  0  0  0  0  0
   17.3309    1.8601    0.0000 C   0  0  0  0  0  0  0  0  0  0  0  0
   20.0707    2.3956    0.0000 C   0  0  1  0  0  0  0  0  0  0  0  0
   18.2330    2.3809    0.0000 C   0  0  0  0  0  0  0  0  0  0  0  0
   16.4614   -0.6748    0.0000 C   0  0  0  0  0  0  0  0  0  0  0  0
   15.5634   -1.2026    0.0000 C   0  0  1  0  0  0  0  0  0  0  0  0
   20.0375    0.2404    0.0000 C   0  0  0  0  0  0  0  0  0  0  0  0
   18.1934   -0.6882    0.0000 C   0  0  0  0  0  0  0  0  0  0  0  0
   15.5793    0.8667    0.0000 C   0  0  0  0  0  0  0  0  0  0  0  0
   14.6613   -0.6818    0.0000 C   0  0  1  0  0  0  0  0  0  0  0  0
   16.7021    1.5894    0.0000 C   0  0  0  0  0  0  0  0  0  0  0  0
   14.6693    0.3598    0.0000 C   0  0  0  0  0  0  0  0  0  0  0  0
   21.0061    1.8459    0.0000 C   0  0  2  0  0  0  0  0  0  0  0  0
   20.9894    0.7610    0.0000 C   0  0  2  0  0  0  0  0  0  0  0  0
   19.0996   -0.1883    0.0000 C   0  0  0  0  0  0  0  0  0  0  0  0
   17.3236   -1.1815    0.0000 C   0  0  0  0  0  0  0  0  0  0  0  0
   16.1343    1.2675    0.0000 C   0  0  0  0  0  0  0  0  0  0  0  0
   15.5801   -2.2874    0.0000 C   0  0  2  0  0  0  0  0  0  0  0  0
   13.7134   -1.2097    0.0000 C   0  0  0  0  0  0  0  0  0  0  0  0
   20.5740    3.2597    0.0000 C   0  0  0  0  0  0  0  0  0  0  0  0
   14.6447   -2.8372    0.0000 C   0  0  1  0  0  0  0  0  0  0  0  0
   19.5740    3.2636    0.0000 C   0  0  0  0  0  0  0  0  0  0  0  0
   13.7050   -2.2947    0.0000 C   0  0  0  0  0  0  0  0  0  0  0  0
   13.7953   -0.1818    0.0000 C   0  0  0  0  0  0  0  0  0  0  0  0
   16.4518   -2.7774    0.0000 C   0  0  0  0  0  0  0  0  0  0  0  0
   14.6485   -3.8372    0.0000 C   0  0  0  0  0  0  0  0  0  0  0  0
   20.0774    4.1277    0.0000 C   0  0  0  0  0  0  0  0  0  0  0  0
   12.0632   -0.1818    0.0000 C   0  0  2  0  0  0  0  0  0  0  0  0
   12.0632    0.8182    0.0000 C   0  0  1  0  0  0  0  0  0  0  0  0
   11.1972    1.3182    0.0000 C   0  0  2  0  0  0  0  0  0  0  0  0
   10.3312   -0.1818    0.0000 C   0  0  1  0  0  0  0  0  0  0  0  0
   10.3312    0.8182    0.0000 C   0  0  1  0  0  0  0  0  0  0  0  0
    9.4651   -0.6818    0.0000 C   0  0  0  0  0  0  0  0  0  0  0  0
    8.5991   -2.1818    0.0000 C   0  0  2  0  0  0  0  0  0  0  0  0
    8.5991   -3.1818    0.0000 C   0  0  1  0  0  0  0  0  0  0  0  0
    7.7331   -3.6818    0.0000 C   0  0  2  0  0  0  0  0  0  0  0  0
    6.8671   -2.1818    0.0000 C   0  0  1  0  0  0  0  0  0  0  0  0
    6.8671   -3.1818    0.0000 C   0  0  1  0  0  0  0  0  0  0  0  0
    6.0010   -1.6818    0.0000 C   0  0  0  0  0  0  0  0  0  0  0  0
    5.1350   -3.1818    0.0000 C   0  0  2  0  0  0  0  0  0  0  0  0
    4.2690   -3.6818    0.0000 C   0  0  1  0  0  0  0  0  0  0  0  0
    3.4030   -3.1818    0.0000 C   0  0  1  0  0  0  0  0  0  0  0  0
    4.2690   -1.6818    0.0000 C   0  0  2  0  0  0  0  0  0  0  0  0
    3.4030   -2.1818    0.0000 C   0  0  2  0  0  0  0  0  0  0  0  0
    4.2690   -0.6818    0.0000 C   0  0  0  0  0  0  0  0  0  0  0  0
   18.9306   -0.1245    0.0000 H   0  0  0  0  0  0  0  0  0  0  0  0
   19.1343    2.7031    0.0000 H   0  0  0  0  0  0  0  0  0  0  0  0
   17.1174    2.4421    0.0000 H   0  0  0  0  0  0  0  0  0  0  0  0
   16.7209    1.7493    0.0000 H   0  0  0  0  0  0  0  0  0  0  0  0
   18.6340    2.8538    0.0000 H   0  0  0  0  0  0  0  0  0  0  0  0
   17.8357    2.8568    0.0000 H   0  0  0  0  0  0  0  0  0  0  0  0
   16.3044   -1.6190    0.0000 H   0  0  0  0  0  0  0  0  0  0  0  0
   19.6257   -0.2231    0.0000 H   0  0  0  0  0  0  0  0  0  0  0  0
   20.4237   -0.2446    0.0000 H   0  0  0  0  0  0  0  0  0  0  0  0
   18.4010   -1.2724    0.0000 H   0  0  0  0  0  0  0  0  0  0  0  0
   18.8048   -0.5852    0.0000 H   0  0  0  0  0  0  0  0  0  0  0  0
   15.9875    1.3334    0.0000 H   0  0  0  0  0  0  0  0  0  0  0  0
   15.1894    1.3487    0.0000 H   0  0  0  0  0  0  0  0  0  0  0  0
   17.1801    1.9843    0.0000 H   0  0  0  0  0  0  0  0  0  0  0  0
   16.3073    2.0674    0.0000 H   0  0  0  0  0  0  0  0  0  0  0  0
   16.2241    1.1946    0.0000 H   0  0  0  0  0  0  0  0  0  0  0  0
   14.4648    0.9451    0.0000 H   0  0  0  0  0  0  0  0  0  0  0  0
   14.0577    0.2585    0.0000 H   0  0  0  0  0  0  0  0  0  0  0  0
   21.5388    1.5287    0.0000 H   0  0  0  0  0  0  0  0  0  0  0  0
   20.9762    0.1412    0.0000 H   0  0  0  0  0  0  0  0  0  0  0  0
   18.4797   -0.1787    0.0000 H   0  0  0  0  0  0  0  0  0  0  0  0
   19.0900   -0.8082    0.0000 H   0  0  0  0  0  0  0  0  0  0  0  0
   19.7195   -0.1978    0.0000 H   0  0  0  0  0  0  0  0  0  0  0  0
   17.3188   -1.8015    0.0000 H   0  0  0  0  0  0  0  0  0  0  0  0
   16.7186    1.4750    0.0000 H   0  0  0  0  0  0  0  0  0  0  0  0
   15.9268    1.8517    0.0000 H   0  0  0  0  0  0  0  0  0  0  0  0
   15.5501    1.0599    0.0000 H   0  0  0  0  0  0  0  0  0  0  0  0
   16.1128   -1.9702    0.0000 H   0  0  0  0  0  0  0  0  0  0  0  0
   13.5089   -0.6244    0.0000 H   0  0  0  0  0  0  0  0  0  0  0  0
   13.1018   -1.3111    0.0000 H   0  0  0  0  0  0  0  0  0  0  0  0
   21.0474    2.8594    0.0000 H   0  0  0  0  0  0  0  0  0  0  0  0
   21.0505    3.6564    0.0000 H   0  0  0  0  0  0  0  0  0  0  0  0
   14.1083   -3.1482    0.0000 H   0  0  0  0  0  0  0  0  0  0  0  0
   20.1122    3.5715    0.0000 H   0  0  0  0  0  0  0  0  0  0  0  0
   19.2661    3.8017    0.0000 H   0  0  0  0  0  0  0  0  0  0  0  0
   19.0359    2.9556    0.0000 H   0  0  0  0  0  0  0  0  0  0  0  0
   13.0950   -2.1839    0.0000 H   0  0  0  0  0  0  0  0  0  0  0  0
   13.4915   -2.8767    0.0000 H   0  0  0  0  0  0  0  0  0  0  0  0
   16.1481   -3.3179    0.0000 H   0  0  0  0  0  0  0  0  0  0  0  0
   16.9923   -3.0812    0.0000 H   0  0  0  0  0  0  0  0  0  0  0  0
   16.7556   -2.2369    0.0000 H   0  0  0  0  0  0  0  0  0  0  0  0
   22.4112    2.0197    0.0000 H   0  0  0  0  0  0  0  0  0  0  0  0
   21.8337   -0.3754    0.0000 H   0  0  0  0  0  0  0  0  0  0  0  0
   14.0285   -3.8395    0.0000 H   0  0  0  0  0  0  0  0  0  0  0  0
   14.6509   -4.4572    0.0000 H   0  0  0  0  0  0  0  0  0  0  0  0
   15.2685   -3.8348    0.0000 H   0  0  0  0  0  0  0  0  0  0  0  0
   19.4574    4.1300    0.0000 H   0  0  0  0  0  0  0  0  0  0  0  0
   12.6002    0.1282    0.0000 H   0  0  0  0  0  0  0  0  0  0  0  0
   12.0632    1.4382    0.0000 H   0  0  0  0  0  0  0  0  0  0  0  0
   10.6603    1.6282    0.0000 H   0  0  0  0  0  0  0  0  0  0  0  0
   10.3312   -0.8018    0.0000 H   0  0  0  0  0  0  0  0  0  0  0  0
    9.7942    0.5082    0.0000 H   0  0  0  0  0  0  0  0  0  0  0  0
   12.9292    1.9382    0.0000 H   0  0  0  0  0  0  0  0  0  0  0  0
    9.2531   -0.0991    0.0000 H   0  0  0  0  0  0  0  0  0  0  0  0
    8.8546   -0.7894    0.0000 H   0  0  0  0  0  0  0  0  0  0  0  0
   11.7341    2.6282    0.0000 H   0  0  0  0  0  0  0  0  0  0  0  0
    9.4651    1.9382    0.0000 H   0  0  0  0  0  0  0  0  0  0  0  0
    8.5991   -1.5618    0.0000 H   0  0  0  0  0  0  0  0  0  0  0  0
    8.5991   -3.8018    0.0000 H   0  0  0  0  0  0  0  0  0  0  0  0
    7.1962   -3.9918    0.0000 H   0  0  0  0  0  0  0  0  0  0  0  0
    6.8671   -1.5618    0.0000 H   0  0  0  0  0  0  0  0  0  0  0  0
    6.3301   -2.8718    0.0000 H   0  0  0  0  0  0  0  0  0  0  0  0
   10.0021   -3.3718    0.0000 H   0  0  0  0  0  0  0  0  0  0  0  0
    5.3905   -1.5741    0.0000 H   0  0  0  0  0  0  0  0  0  0  0  0
    5.7890   -2.2644    0.0000 H   0  0  0  0  0  0  0  0  0  0  0  0
    8.2700   -4.9918    0.0000 H   0  0  0  0  0  0  0  0  0  0  0  0
    5.1350   -3.8018    0.0000 H   0  0  0  0  0  0  0  0  0  0  0  0
    3.7320   -3.9918    0.0000 H   0  0  0  0  0  0  0  0  0  0  0  0
    6.5380   -0.3718    0.0000 H   0  0  0  0  0  0  0  0  0  0  0  0
    2.8660   -2.8718    0.0000 H   0  0  0  0  0  0  0  0  0  0  0  0
    4.8059   -1.3718    0.0000 H   0  0  0  0  0  0  0  0  0  0  0  0
    3.4030   -1.5618    0.0000 H   0  0  0  0  0  0  0  0  0  0  0  0
    3.7320   -4.9918    0.0000 H   0  0  0  0  0  0  0  0  0  0  0  0
    4.8890   -0.6818    0.0000 H   0  0  0  0  0  0  0  0  0  0  0  0
    4.2690   -0.0618    0.0000 H   0  0  0  0  0  0  0  0  0  0  0  0
    3.6490   -0.6818    0.0000 H   0  0  0  0  0  0  0  0  0  0  0  0
    2.0000   -3.3718    0.0000 H   0  0  0  0  0  0  0  0  0  0  0  0
    2.5369   -1.0618    0.0000 H   0  0  0  0  0  0  0  0  0  0  0  0
 36  1  1  1  0  0  0
  1110  1  0  0  0  0
 37  2  1  6  0  0  0
  2111  1  0  0  0  0
  3 47  1  0  0  0  0
 51  3  1  6  0  0  0
  4 47  2  0  0  0  0
  5 50  2  0  0  0  0
  6 51  1  0  0  0  0
  6 54  1  0  0  0  0
 52  7  1  1  0  0  0
  7121  1  0  0  0  0
 53  8  1  6  0  0  0
  8124  1  0  0  0  0
 55  9  1  1  0  0  0
  9125  1  0  0  0  0
 10 56  1  0  0  0  0
 57 10  1  1  0  0  0
 11 57  1  0  0  0  0
 11 60  1  0  0  0  0
 58 12  1  6  0  0  0
 12131  1  0  0  0  0
 61 13  1  6  0  0  0
 63 13  1  1  0  0  0
 59 14  1  1  0  0  0
 14134  1  0  0  0  0
 15 62  1  0  0  0  0
 15137  1  0  0  0  0
 16 63  1  0  0  0  0
 16 66  1  0  0  0  0
 64 17  1  6  0  0  0
 17141  1  0  0  0  0
 65 18  1  6  0  0  0
 18145  1  0  0  0  0
 67 19  1  1  0  0  0
 19146  1  0  0  0  0
 20 21  1  0  0  0  0
 20 23  1  0  0  0  0
 20 25  1  0  0  0  0
 20 34  1  1  0  0  0
 21 22  1  0  0  0  0
 21 31  1  0  0  0  0
 21 69  1  6  0  0  0
 22 24  1  0  0  0  0
 22 30  1  0  0  0  0
 22 38  1  1  0  0  0
 23 28  1  0  0  0  0
 23 32  1  0  0  0  0
 23 40  1  6  0  0  0
 24 26  1  0  0  0  0
 24 27  1  0  0  0  0
 24 70  1  6  0  0  0
 25 27  1  0  0  0  0
 25 71  1  0  0  0  0
 25 72  1  0  0  0  0
 26 36  1  0  0  0  0
 26 43  1  0  0  0  0
 26 45  1  1  0  0  0
 27 73  1  0  0  0  0
 27 74  1  0  0  0  0
 28 29  1  0  0  0  0
 28 39  2  0  0  0  0
 29 33  1  0  0  0  0
 29 41  1  0  0  0  0
 29 75  1  1  0  0  0
 30 37  1  0  0  0  0
 30 76  1  0  0  0  0
 30 77  1  0  0  0  0
 31 39  1  0  0  0  0
 31 78  1  0  0  0  0
 31 79  1  0  0  0  0
 32 35  1  0  0  0  0
 32 80  1  0  0  0  0
 32 81  1  0  0  0  0
 33 35  1  0  0  0  0
 33 42  1  0  0  0  0
 33 47  1  1  0  0  0
 34 82  1  0  0  0  0
 34 83  1  0  0  0  0
 34 84  1  0  0  0  0
 35 85  1  0  0  0  0
 35 86  1  0  0  0  0
 36 37  1  0  0  0  0
 36 87  1  0  0  0  0
 37 88  1  0  0  0  0
 38 89  1  0  0  0  0
 38 90  1  0  0  0  0
 38 91  1  0  0  0  0
 39 92  1  0  0  0  0
 40 93  1  0  0  0  0
 40 94  1  0  0  0  0
 40 95  1  0  0  0  0
 41 44  1  0  0  0  0
 41 48  1  1  0  0  0
 41 96  1  0  0  0  0
 42 46  1  0  0  0  0
 42 97  1  0  0  0  0
 42 98  1  0  0  0  0
 43 50  1  0  0  0  0
 43 99  1  0  0  0  0
 43100  1  0  0  0  0
 44 46  1  0  0  0  0
 44 49  1  6  0  0  0
 44101  1  0  0  0  0
 45102  1  0  0  0  0
 45103  1  0  0  0  0
 45104  1  0  0  0  0
 46105  1  0  0  0  0
 46106  1  0  0  0  0
 48107  1  0  0  0  0
 48108  1  0  0  0  0
 48109  1  0  0  0  0
 49112  1  0  0  0  0
 49113  1  0  0  0  0
 49114  1  0  0  0  0
 50115  1  0  0  0  0
 51 52  1  0  0  0  0
 51116  1  0  0  0  0
 52 53  1  0  0  0  0
 52117  1  0  0  0  0
 53 55  1  0  0  0  0
 53118  1  0  0  0  0
 54 55  1  0  0  0  0
 54 56  1  6  0  0  0
 54119  1  0  0  0  0
 55120  1  0  0  0  0
 56122  1  0  0  0  0
 56123  1  0  0  0  0
 57 58  1  0  0  0  0
 57126  1  0  0  0  0
 58 59  1  0  0  0  0
 58127  1  0  0  0  0
 59 61  1  0  0  0  0
 59128  1  0  0  0  0
 60 61  1  0  0  0  0
 60 62  1  1  0  0  0
 60129  1  0  0  0  0
 61130  1  0  0  0  0
 62132  1  0  0  0  0
 62133  1  0  0  0  0
 63 64  1  0  0  0  0
 63135  1  0  0  0  0
 64 65  1  0  0  0  0
 64136  1  0  0  0  0
 65 67  1  0  0  0  0
 65138  1  0  0  0  0
 66 67  1  0  0  0  0
 66 68  1  6  0  0  0
 66139  1  0  0  0  0
 67140  1  0  0  0  0
 68142  1  0  0  0  0
 68143  1  0  0  0  0
 68144  1  0  0  0  0
M  END
> <PUBCHEM_COMPOUND_CID>
102212086

> <PUBCHEM_COMPOUND_CANONICALIZED>
1

> <PUBCHEM_CACTVS_COMPLEXITY>
1870

> <PUBCHEM_CACTVS_HBOND_ACCEPTOR>
19

> <PUBCHEM_CACTVS_HBOND_DONOR>
11

> <PUBCHEM_CACTVS_ROTATABLE_BOND>
11

> <PUBCHEM_CACTVS_SUBSKEYS>
AAADcfB8PgAAAAAAAAAAAAAAAAAAAAAAAAA0aNGCAAAAAADAAAAAGgAACAAADxSwgAMCCAAABgCIAijSiAAAAAAgAAAACAEAAAgREBIAAQAiQAAFgAAPAAPK7PzPgAAAAAAAAADAAAYAADCAAAAAAAAAAA==

> <PUBCHEM_IUPAC_OPENEYE_NAME>
[(2S,3R,4S,5S,6R)-6-[[(2R,3R,4R,5S,6R)-3,4-dihydroxy-6-(hydroxymethyl)-5-[(2S,3R,4R,5R,6S)-3,4,5-trihydroxy-6-methyl-tetrahydropyran-2-yl]oxy-tetrahydropyran-2-yl]oxymethyl]-3,4,5-trihydroxy-tetrahydropyran-2-yl] (1S,2R,4aS,6aR,6aS,6bR,8aR,9S,10R,11R,12aR,14bS)-10,11-dihydroxy-1,2,6a,6b,9,12a-hexamethyl-9-(2-oxoethyl)-2,3,4,5,6,6a,7,8,8a,10,11,12,13,14b-tetradecahydro-1H-picene-4a-carboxylate

> <PUBCHEM_IUPAC_CAS_NAME>
(1S,2R,4aS,6aR,6aS,6bR,8aR,9S,10R,11R,12aR,14bS)-10,11-dihydroxy-1,2,6a,6b,9,12a-hexamethyl-9-(2-oxoethyl)-2,3,4,5,6,6a,7,8,8a,10,11,12,13,14b-tetradecahydro-1H-picene-4a-carboxylic acid [(2S,3R,4S,5S,6R)-6-[[(2R,3R,4R,5S,6R)-3,4-dihydroxy-6-(hydroxymethyl)-5-[[(2S,3R,4R,5R,6S)-3,4,5-trihydroxy-6-methyl-2-oxanyl]oxy]-2-oxanyl]oxymethyl]-3,4,5-trihydroxy-2-oxanyl] ester

> <PUBCHEM_IUPAC_NAME_MARKUP>
[(2<I>S</I>,3<I>R</I>,4<I>S</I>,5<I>S</I>,6<I>R</I>)-6-[[(2<I>R</I>,3<I>R</I>,4<I>R</I>,5<I>S</I>,6<I>R</I>)-3,4-dihydroxy-6-(hydroxymethyl)-5-[(2<I>S</I>,3<I>R</I>,4<I>R</I>,5<I>R</I>,6<I>S</I>)-3,4,5-trihydroxy-6-methyloxan-2-yl]oxyoxan-2-yl]oxymethyl]-3,4,5-trihydroxyoxan-2-yl] (1<I>S</I>,2<I>R</I>,4<I>a</I><I>S</I>,6<I>a</I><I>R</I>,6<I>a</I><I>S</I>,6<I>b</I><I>R</I>,8<I>a</I><I>R</I>,9<I>S</I>,10<I>R</I>,11<I>R</I>,12<I>a</I><I>R</I>,14<I>b</I><I>S</I>)-10,11-dihydroxy-1,2,6<I>a</I>,6<I>b</I>,9,12<I>a</I>-hexamethyl-9-(2-oxoethyl)-2,3,4,5,6,6<I>a</I>,7,8,8<I>a</I>,10,11,12,13,14<I>b</I>-tetradecahydro-1<I>H</I>-picene-4<I>a</I>-carboxylate

> <PUBCHEM_IUPAC_NAME>
[(2S,3R,4S,5S,6R)-6-[[(2R,3R,4R,5S,6R)-3,4-dihydroxy-6-(hydroxymethyl)-5-[(2S,3R,4R,5R,6S)-3,4,5-trihydroxy-6-methyloxan-2-yl]oxyoxan-2-yl]oxymethyl]-3,4,5-trihydroxyoxan-2-yl] (1S,2R,4aS,6aR,6aS,6bR,8aR,9S,10R,11R,12aR,14bS)-10,11-dihydroxy-1,2,6a,6b,9,12a-hexamethyl-9-(2-oxoethyl)-2,3,4,5,6,6a,7,8,8a,10,11,12,13,14b-tetradecahydro-1H-picene-4a-carboxylate

> <PUBCHEM_IUPAC_SYSTEMATIC_NAME>
[(2S,3R,4S,5S,6R)-6-[[(2R,3R,4R,5S,6R)-6-(hydroxymethyl)-5-[(2S,3R,4R,5R,6S)-6-methyl-3,4,5-tris(oxidanyl)oxan-2-yl]oxy-3,4-bis(oxidanyl)oxan-2-yl]oxymethyl]-3,4,5-tris(oxidanyl)oxan-2-yl] (1S,2R,4aS,6aR,6aS,6bR,8aR,9S,10R,11R,12aR,14bS)-1,2,6a,6b,9,12a-hexamethyl-10,11-bis(oxidanyl)-9-(2-oxidanylideneethyl)-2,3,4,5,6,6a,7,8,8a,10,11,12,13,14b-tetradecahydro-1H-picene-4a-carboxylate

> <PUBCHEM_IUPAC_TRADITIONAL_NAME>
(1S,2R,4aS,6aR,6aS,6bR,8aR,9S,10R,11R,12aR,14bS)-10,11-dihydroxy-9-(2-ketoethyl)-1,2,6a,6b,9,12a-hexamethyl-2,3,4,5,6,6a,7,8,8a,10,11,12,13,14b-tetradecahydro-1H-picene-4a-carboxylic acid [(2S,3R,4S,5S,6R)-6-[[(2R,3R,4R,5S,6R)-3,4-dihydroxy-6-methylol-5-[(2S,3R,4R,5R,6S)-3,4,5-trihydroxy-6-methyl-tetrahydropyran-2-yl]oxy-tetrahydropyran-2-yl]oxymethyl]-3,4,5-trihydroxy-tetrahydropyran-2-yl] ester

> <PUBCHEM_IUPAC_INCHI>
InChI=1S/C49H78O19/c1-21-10-13-49(15-14-47(6)24(30(49)22(21)2)8-9-29-46(5)18-25(52)40(61)45(4,16-17-50)28(46)11-12-48(29,47)7)44(62)68-43-37(59)34(56)32(54)27(66-43)20-63-41-38(60)35(57)39(26(19-51)65-41)67-42-36(58)33(55)31(53)23(3)64-42/h8,17,21-23,25-43,51-61H,9-16,18-20H2,1-7H3/t21-,22+,23+,25-,26-,27-,28+,29-,30+,31+,32-,33-,34+,35-,36-,37-,38-,39-,40+,41-,42+,43+,45+,46+,47-,48-,49+/m1/s1

> <PUBCHEM_IUPAC_INCHIKEY>
OBYIGFCOMHGJTB-VIBPWZAGSA-N

> <PUBCHEM_XLOGP3_AA>
-0.3

> <PUBCHEM_EXACT_MASS>
970.51373

> <PUBCHEM_MOLECULAR_FORMULA>
C49H78O19

> <PUBCHEM_MOLECULAR_WEIGHT>
971.1

> <PUBCHEM_OPENEYE_CAN_SMILES>
CC1CCC2(CCC3(C(=CCC4C3(CCC5C4(CC(C(C5(C)CC=O)O)O)C)C)C2C1C)C)C(=O)OC6C(C(C(C(O6)COC7C(C(C(C(O7)CO)OC8C(C(C(C(O8)C)O)O)O)O)O)O)O)O

> <PUBCHEM_OPENEYE_ISO_SMILES>
C[C@@H]1CC[C@@]2(CC[C@@]3(C(=CC[C@H]4[C@]3(CC[C@@H]5[C@@]4(C[C@H]([C@@H]([C@@]5(C)CC=O)O)O)C)C)[C@@H]2[C@H]1C)C)C(=O)O[C@H]6[C@@H]([C@H]([C@@H]([C@H](O6)CO[C@H]7[C@@H]([C@H]([C@@H]([C@H](O7)CO)O[C@H]8[C@@H]([C@@H]([C@H]([C@@H](O8)C)O)O)O)O)O)O)O)O

> <PUBCHEM_CACTVS_TPSA>
312

> <PUBCHEM_MONOISOTOPIC_WEIGHT>
970.51373

> <PUBCHEM_TOTAL_CHARGE>
0

> <PUBCHEM_HEAVY_ATOM_COUNT>
68

> <PUBCHEM_ATOM_DEF_STEREO_COUNT>
27

> <PUBCHEM_ATOM_UDEF_STEREO_COUNT>
0

> <PUBCHEM_BOND_DEF_STEREO_COUNT>
0

> <PUBCHEM_BOND_UDEF_STEREO_COUNT>
0

> <PUBCHEM_ISOTOPIC_ATOM_COUNT>
0

> <PUBCHEM_COMPONENT_COUNT>
1

> <PUBCHEM_CACTVS_TAUTO_COUNT>
-1

> <PUBCHEM_COORDINATE_TYPE>
1
5
255

> <PUBCHEM_BONDANNOTATIONS>
36  1  5
57  10  5
58  12  6
61  13  6
63  13  5
59  14  5
64  17  6
65  18  6
67  19  5
37  2  6
20  34  5
21  69  6
22  38  5
23  40  6
24  70  6
26  45  5
29  75  5
51  3  6
33  47  5
41  48  5
44  49  6
54  56  6
60  62  5
66  68  6
52  7  5
53  8  6
55  9  5

$$$$
