73196815
  -OEChem-11202013312D

 83 87  0     1  0  0  0  0  0999 V2000
    2.5357   -1.8922    0.0000 O   0  0  0  0  0  0  0  0  0  0  0  0
    2.5519    0.1994    0.0000 O   0  0  0  0  0  0  0  0  0  0  0  0
    4.3500   -3.6701    0.0000 O   0  0  0  0  0  0  0  0  0  0  0  0
   11.4608    1.1943    0.0000 O   0  0  0  0  0  0  0  0  0  0  0  0
   10.6064   -0.3123    0.0000 O   0  0  0  0  0  0  0  0  0  0  0  0
    7.0628   -0.3398    0.0000 C   0  0  3  0  0  0  0  0  0  0  0  0
    6.1968    0.1601    0.0000 C   0  0  3  0  0  0  0  0  0  0  0  0
    5.2868   -0.3467    0.0000 C   0  0  3  0  0  0  0  0  0  0  0  0
    7.9288    0.1601    0.0000 C   0  0  3  0  0  0  0  0  0  0  0  0
    5.2787   -1.3883    0.0000 C   0  0  3  0  0  0  0  0  0  0  0  0
    7.0789   -1.3814    0.0000 C   0  0  0  0  0  0  0  0  0  0  0  0
    4.3433   -1.9380    0.0000 C   0  0  3  0  0  0  0  0  0  0  0  0
    6.1808   -1.9091    0.0000 C   0  0  0  0  0  0  0  0  0  0  0  0
    6.1968    1.1602    0.0000 C   0  0  0  0  0  0  0  0  0  0  0  0
    4.3599    0.2174    0.0000 C   0  0  0  0  0  0  0  0  0  0  0  0
    7.9288    1.1602    0.0000 C   0  0  0  0  0  0  0  0  0  0  0  0
    8.8228   -0.3745    0.0000 C   0  0  0  0  0  0  0  0  0  0  0  0
    7.0628    1.6602    0.0000 C   0  0  0  0  0  0  0  0  0  0  0  0
    7.7056   -1.1059    0.0000 C   0  0  0  0  0  0  0  0  0  0  0  0
    3.4037   -1.3955    0.0000 C   0  0  3  0  0  0  0  0  0  0  0  0
    3.4120   -0.3106    0.0000 C   0  0  3  0  0  0  0  0  0  0  0  0
    5.2945    0.6533    0.0000 C   0  0  0  0  0  0  0  0  0  0  0  0
    8.8228    1.6948    0.0000 C   0  0  0  0  0  0  0  0  0  0  0  0
    9.7288    1.1810    0.0000 C   0  0  3  0  0  0  0  0  0  0  0  0
    9.7288    0.1393    0.0000 C   0  0  0  0  0  0  0  0  0  0  0  0
    8.2709   -0.7795    0.0000 C   0  0  0  0  0  0  0  0  0  0  0  0
    3.8467   -2.8060    0.0000 C   0  0  0  0  0  0  0  0  0  0  0  0
    4.8466   -2.8021    0.0000 C   0  0  0  0  0  0  0  0  0  0  0  0
    8.7977    2.7795    0.0000 C   0  0  0  0  0  0  0  0  0  0  0  0
   10.6726    1.7162    0.0000 C   0  0  0  0  0  0  0  0  0  0  0  0
    9.7288    3.3364    0.0000 C   0  0  0  0  0  0  0  0  0  0  0  0
   10.6726    2.8012    0.0000 C   0  0  0  0  0  0  0  0  0  0  0  0
   10.5987    0.6877    0.0000 C   0  0  0  0  0  0  0  0  0  0  0  0
   10.2188    4.2082    0.0000 C   0  0  0  0  0  0  0  0  0  0  0  0
    9.2188    4.1966    0.0000 C   0  0  0  0  0  0  0  0  0  0  0  0
    6.7337    0.4702    0.0000 H   0  0  0  0  0  0  0  0  0  0  0  0
    5.2811   -2.0083    0.0000 H   0  0  0  0  0  0  0  0  0  0  0  0
    7.2969   -1.9618    0.0000 H   0  0  0  0  0  0  0  0  0  0  0  0
    7.6880   -1.2659    0.0000 H   0  0  0  0  0  0  0  0  0  0  0  0
    5.7835   -2.3851    0.0000 H   0  0  0  0  0  0  0  0  0  0  0  0
    6.5818   -2.3820    0.0000 H   0  0  0  0  0  0  0  0  0  0  0  0
    5.9847    1.7428    0.0000 H   0  0  0  0  0  0  0  0  0  0  0  0
    5.5862    1.0525    0.0000 H   0  0  0  0  0  0  0  0  0  0  0  0
    4.7681    0.6840    0.0000 H   0  0  0  0  0  0  0  0  0  0  0  0
    3.9700    0.6994    0.0000 H   0  0  0  0  0  0  0  0  0  0  0  0
    8.4182   -0.8443    0.0000 H   0  0  0  0  0  0  0  0  0  0  0  0
    9.2164   -0.8535    0.0000 H   0  0  0  0  0  0  0  0  0  0  0  0
    7.4613    2.1351    0.0000 H   0  0  0  0  0  0  0  0  0  0  0  0
    6.6643    2.1351    0.0000 H   0  0  0  0  0  0  0  0  0  0  0  0
    7.2306   -1.5044    0.0000 H   0  0  0  0  0  0  0  0  0  0  0  0
    8.1041   -1.5808    0.0000 H   0  0  0  0  0  0  0  0  0  0  0  0
    8.1805   -0.7074    0.0000 H   0  0  0  0  0  0  0  0  0  0  0  0
    3.4025   -2.0155    0.0000 H   0  0  0  0  0  0  0  0  0  0  0  0
    2.8722   -0.6154    0.0000 H   0  0  0  0  0  0  0  0  0  0  0  0
    5.9145    0.6485    0.0000 H   0  0  0  0  0  0  0  0  0  0  0  0
    5.2993    1.2733    0.0000 H   0  0  0  0  0  0  0  0  0  0  0  0
    4.6745    0.6581    0.0000 H   0  0  0  0  0  0  0  0  0  0  0  0
    9.9379   -0.4444    0.0000 H   0  0  0  0  0  0  0  0  0  0  0  0
   10.3397    0.2454    0.0000 H   0  0  0  0  0  0  0  0  0  0  0  0
    7.6884   -0.9916    0.0000 H   0  0  0  0  0  0  0  0  0  0  0  0
    8.4830   -1.3621    0.0000 H   0  0  0  0  0  0  0  0  0  0  0  0
    8.8535   -0.5674    0.0000 H   0  0  0  0  0  0  0  0  0  0  0  0
    3.3702   -2.4093    0.0000 H   0  0  0  0  0  0  0  0  0  0  0  0
    3.3732   -3.2063    0.0000 H   0  0  0  0  0  0  0  0  0  0  0  0
    4.3109   -3.1142    0.0000 H   0  0  0  0  0  0  0  0  0  0  0  0
    5.1587   -3.3378    0.0000 H   0  0  0  0  0  0  0  0  0  0  0  0
    5.3824   -2.4900    0.0000 H   0  0  0  0  0  0  0  0  0  0  0  0
    8.5752    3.3582    0.0000 H   0  0  0  0  0  0  0  0  0  0  0  0
    8.1894    2.6593    0.0000 H   0  0  0  0  0  0  0  0  0  0  0  0
   10.8817    1.1325    0.0000 H   0  0  0  0  0  0  0  0  0  0  0  0
   11.2835    1.8223    0.0000 H   0  0  0  0  0  0  0  0  0  0  0  0
   11.2835    2.6951    0.0000 H   0  0  0  0  0  0  0  0  0  0  0  0
   10.8817    3.3849    0.0000 H   0  0  0  0  0  0  0  0  0  0  0  0
    2.0000   -1.5801    0.0000 H   0  0  0  0  0  0  0  0  0  0  0  0
    2.5590    0.8194    0.0000 H   0  0  0  0  0  0  0  0  0  0  0  0
   10.7593    3.9044    0.0000 H   0  0  0  0  0  0  0  0  0  0  0  0
   10.5226    4.7487    0.0000 H   0  0  0  0  0  0  0  0  0  0  0  0
    9.6783    4.5120    0.0000 H   0  0  0  0  0  0  0  0  0  0  0  0
    9.7522    4.5128    0.0000 H   0  0  0  0  0  0  0  0  0  0  0  0
    8.9027    4.7299    0.0000 H   0  0  0  0  0  0  0  0  0  0  0  0
    8.6855    3.8804    0.0000 H   0  0  0  0  0  0  0  0  0  0  0  0
    4.0421   -4.2082    0.0000 H   0  0  0  0  0  0  0  0  0  0  0  0
   12.0001    0.8885    0.0000 H   0  0  0  0  0  0  0  0  0  0  0  0
  1 20  1  0  0  0  0
  1 74  1  0  0  0  0
  2 21  1  0  0  0  0
  2 75  1  0  0  0  0
  3 27  1  0  0  0  0
  3 82  1  0  0  0  0
  4 33  1  0  0  0  0
  4 83  1  0  0  0  0
  5 33  2  0  0  0  0
  6  7  1  0  0  0  0
  6  9  1  0  0  0  0
  6 11  1  0  0  0  0
  6 19  1  0  0  0  0
  7  8  1  0  0  0  0
  7 14  1  0  0  0  0
  7 36  1  0  0  0  0
  8 10  1  0  0  0  0
  8 15  1  0  0  0  0
  8 22  1  0  0  0  0
  9 16  1  0  0  0  0
  9 17  1  0  0  0  0
  9 26  1  0  0  0  0
 10 12  1  0  0  0  0
 10 13  1  0  0  0  0
 10 37  1  0  0  0  0
 11 13  1  0  0  0  0
 11 38  1  0  0  0  0
 11 39  1  0  0  0  0
 12 20  1  0  0  0  0
 12 27  1  0  0  0  0
 12 28  1  0  0  0  0
 13 40  1  0  0  0  0
 13 41  1  0  0  0  0
 14 18  1  0  0  0  0
 14 42  1  0  0  0  0
 14 43  1  0  0  0  0
 15 21  1  0  0  0  0
 15 44  1  0  0  0  0
 15 45  1  0  0  0  0
 16 18  1  0  0  0  0
 16 23  2  0  0  0  0
 17 25  1  0  0  0  0
 17 46  1  0  0  0  0
 17 47  1  0  0  0  0
 18 48  1  0  0  0  0
 18 49  1  0  0  0  0
 19 50  1  0  0  0  0
 19 51  1  0  0  0  0
 19 52  1  0  0  0  0
 20 21  1  0  0  0  0
 20 53  1  0  0  0  0
 21 54  1  0  0  0  0
 22 55  1  0  0  0  0
 22 56  1  0  0  0  0
 22 57  1  0  0  0  0
 23 24  1  0  0  0  0
 23 29  1  0  0  0  0
 24 25  1  0  0  0  0
 24 30  1  0  0  0  0
 24 33  1  0  0  0  0
 25 58  1  0  0  0  0
 25 59  1  0  0  0  0
 26 60  1  0  0  0  0
 26 61  1  0  0  0  0
 26 62  1  0  0  0  0
 27 63  1  0  0  0  0
 27 64  1  0  0  0  0
 28 65  1  0  0  0  0
 28 66  1  0  0  0  0
 28 67  1  0  0  0  0
 29 31  1  0  0  0  0
 29 68  1  0  0  0  0
 29 69  1  0  0  0  0
 30 32  1  0  0  0  0
 30 70  1  0  0  0  0
 30 71  1  0  0  0  0
 31 32  1  0  0  0  0
 31 34  1  0  0  0  0
 31 35  1  0  0  0  0
 32 72  1  0  0  0  0
 32 73  1  0  0  0  0
 34 76  1  0  0  0  0
 34 77  1  0  0  0  0
 34 78  1  0  0  0  0
 35 79  1  0  0  0  0
 35 80  1  0  0  0  0
 35 81  1  0  0  0  0
M  END
> <PUBCHEM_COMPOUND_CID>
73196815

> <PUBCHEM_COMPOUND_CANONICALIZED>
1

> <PUBCHEM_CACTVS_COMPLEXITY>
954

> <PUBCHEM_CACTVS_HBOND_ACCEPTOR>
5

> <PUBCHEM_CACTVS_HBOND_DONOR>
4

> <PUBCHEM_CACTVS_ROTATABLE_BOND>
2

> <PUBCHEM_CACTVS_SUBSKEYS>
AAADcfB4OAAAAAAAAAAAAAAAAAAAAAAAAAAwYMGCAAAAAADAAAAAGgAACAAADxSggAICCAAAAgCIAgDQCAAAAAAgAAAACAEAAAgBEBIAAAAAQAAFwAAJAAPIyPCPgAAAAAAAAADAAAYAADCAAAAAAAAAAA==

> <PUBCHEM_IUPAC_OPENEYE_NAME>
10,11-dihydroxy-9-(hydroxymethyl)-2,2,6a,6b,9,12a-hexamethyl-1,3,4,5,6,6a,7,8,8a,10,11,12,13,14-tetradecahydropicene-4a-carboxylic acid

> <PUBCHEM_IUPAC_CAS_NAME>
10,11-dihydroxy-9-(hydroxymethyl)-2,2,6a,6b,9,12a-hexamethyl-1,3,4,5,6,6a,7,8,8a,10,11,12,13,14-tetradecahydropicene-4a-carboxylic acid

> <PUBCHEM_IUPAC_NAME_MARKUP>
10,11-dihydroxy-9-(hydroxymethyl)-2,2,6<I>a</I>,6<I>b</I>,9,12<I>a</I>-hexamethyl-1,3,4,5,6,6<I>a</I>,7,8,8<I>a</I>,10,11,12,13,14-tetradecahydropicene-4<I>a</I>-carboxylic acid

> <PUBCHEM_IUPAC_NAME>
10,11-dihydroxy-9-(hydroxymethyl)-2,2,6a,6b,9,12a-hexamethyl-1,3,4,5,6,6a,7,8,8a,10,11,12,13,14-tetradecahydropicene-4a-carboxylic acid

> <PUBCHEM_IUPAC_SYSTEMATIC_NAME>
9-(hydroxymethyl)-2,2,6a,6b,9,12a-hexamethyl-10,11-bis(oxidanyl)-1,3,4,5,6,6a,7,8,8a,10,11,12,13,14-tetradecahydropicene-4a-carboxylic acid

> <PUBCHEM_IUPAC_TRADITIONAL_NAME>
10,11-dihydroxy-2,2,6a,6b,9,12a-hexamethyl-9-methylol-1,3,4,5,6,6a,7,8,8a,10,11,12,13,14-tetradecahydropicene-4a-carboxylic acid

> <PUBCHEM_IUPAC_INCHI>
InChI=1S/C30H48O5/c1-25(2)11-13-30(24(34)35)14-12-28(5)18(19(30)15-25)7-8-22-26(3)16-20(32)23(33)27(4,17-31)21(26)9-10-29(22,28)6/h20-23,31-33H,7-17H2,1-6H3,(H,34,35)

> <PUBCHEM_IUPAC_INCHIKEY>
LBYASJQBHLSHBP-UHFFFAOYSA-N

> <PUBCHEM_XLOGP3_AA>
5.6

> <PUBCHEM_EXACT_MASS>
488.350175

> <PUBCHEM_MOLECULAR_FORMULA>
C30H48O5

> <PUBCHEM_MOLECULAR_WEIGHT>
488.7

> <PUBCHEM_OPENEYE_CAN_SMILES>
CC1(CCC2(CCC3(C(=C2C1)CCC4C3(CCC5C4(CC(C(C5(C)CO)O)O)C)C)C)C(=O)O)C

> <PUBCHEM_OPENEYE_ISO_SMILES>
CC1(CCC2(CCC3(C(=C2C1)CCC4C3(CCC5C4(CC(C(C5(C)CO)O)O)C)C)C)C(=O)O)C

> <PUBCHEM_CACTVS_TPSA>
98

> <PUBCHEM_MONOISOTOPIC_WEIGHT>
488.350175

> <PUBCHEM_TOTAL_CHARGE>
0

> <PUBCHEM_HEAVY_ATOM_COUNT>
35

> <PUBCHEM_ATOM_DEF_STEREO_COUNT>
0

> <PUBCHEM_ATOM_UDEF_STEREO_COUNT>
9

> <PUBCHEM_BOND_DEF_STEREO_COUNT>
0

> <PUBCHEM_BOND_UDEF_STEREO_COUNT>
0

> <PUBCHEM_ISOTOPIC_ATOM_COUNT>
0

> <PUBCHEM_COMPONENT_COUNT>
1

> <PUBCHEM_CACTVS_TAUTO_COUNT>
-1

> <PUBCHEM_COORDINATE_TYPE>
1
5
255

> <PUBCHEM_BONDANNOTATIONS>
20  1  3
10  13  3
12  28  3
21  2  3
24  33  3
6  19  3
7  14  3
8  22  3
9  26  3

$$$$
