56673402
  -OEChem-09082007332D

108113  0     1  0  0  0  0  0999 V2000
    7.1162    0.0980    0.0000 O   0  0  0  0  0  0  0  0  0  0  0  0
   10.1849    0.0980    0.0000 O   0  0  0  0  0  0  0  0  0  0  0  0
    5.1297    3.2249    0.0000 O   0  0  0  0  0  0  0  0  0  0  0  0
    8.4242    4.2954    0.0000 O   0  0  0  0  0  0  0  0  0  0  0  0
   12.1796   -3.0202    0.0000 O   0  0  0  0  0  0  0  0  0  0  0  0
    8.8869   -4.0964    0.0000 O   0  0  0  0  0  0  0  0  0  0  0  0
    6.4680    4.7112    0.0000 O   0  0  0  0  0  0  0  0  0  0  0  0
   10.8439   -4.5088    0.0000 O   0  0  0  0  0  0  0  0  0  0  0  0
    5.8499    6.6133    0.0000 O   0  0  0  0  0  0  0  0  0  0  0  0
   11.4653   -6.4099    0.0000 O   0  0  0  0  0  0  0  0  0  0  0  0
    3.8425    4.3839    0.0000 O   0  0  0  0  0  0  0  0  0  0  0  0
   13.4688   -4.1770    0.0000 O   0  0  0  0  0  0  0  0  0  0  0  0
    4.5628    7.7723    0.0000 O   0  0  0  0  0  0  0  0  0  0  0  0
   14.7114   -7.9790    0.0000 O   0  0  0  0  0  0  0  0  0  0  0  0
    2.6064    8.1881    0.0000 O   0  0  0  0  0  0  0  0  0  0  0  0
   16.0471   -6.4904    0.0000 O   0  0  0  0  0  0  0  0  0  0  0  0
    8.6551    0.5980    0.0000 C   0  0  2  0  0  0  0  0  0  0  0  0
    8.6551   -0.4020    0.0000 C   0  0  2  0  0  0  0  0  0  0  0  0
    7.7040    0.9070    0.0000 C   0  0  2  0  0  0  0  0  0  0  0  0
    9.6013   -0.7068    0.0000 C   0  0  2  0  0  0  0  0  0  0  0  0
    7.7040   -0.7110    0.0000 C   0  0  0  0  0  0  0  0  0  0  0  0
    9.6013    0.9027    0.0000 C   0  0  0  0  0  0  0  0  0  0  0  0
    7.3950    1.8580    0.0000 C   0  0  0  0  0  0  0  0  0  0  0  0
    9.9119   -1.6573    0.0000 C   0  0  0  0  0  0  0  0  0  0  0  0
    8.0641    2.6012    0.0000 C   0  0  0  0  0  0  0  0  0  0  0  0
    6.4168    2.0660    0.0000 C   0  0  0  0  0  0  0  0  0  0  0  0
    9.2441   -2.4016    0.0000 C   0  0  0  0  0  0  0  0  0  0  0  0
   10.8905   -1.8635    0.0000 C   0  0  0  0  0  0  0  0  0  0  0  0
    6.1078    3.0170    0.0000 C   0  0  0  0  0  0  0  0  0  0  0  0
    7.7551    3.5522    0.0000 C   0  0  0  0  0  0  0  0  0  0  0  0
   11.2011   -2.8140    0.0000 C   0  0  0  0  0  0  0  0  0  0  0  0
    9.5548   -3.3521    0.0000 C   0  0  0  0  0  0  0  0  0  0  0  0
    6.7770    3.7602    0.0000 C   0  0  0  0  0  0  0  0  0  0  0  0
   10.5333   -3.5583    0.0000 C   0  0  0  0  0  0  0  0  0  0  0  0
    5.4898    4.9191    0.0000 C   0  0  2  0  0  0  0  0  0  0  0  0
   11.8224   -4.7151    0.0000 C   0  0  2  0  0  0  0  0  0  0  0  0
    4.4605    2.4818    0.0000 C   0  0  0  0  0  0  0  0  0  0  0  0
    8.1152    5.2464    0.0000 C   0  0  0  0  0  0  0  0  0  0  0  0
   12.8475   -2.2759    0.0000 C   0  0  0  0  0  0  0  0  0  0  0  0
    9.1976   -5.0469    0.0000 C   0  0  0  0  0  0  0  0  0  0  0  0
    5.1808    5.8702    0.0000 C   0  0  1  0  0  0  0  0  0  0  0  0
   12.1331   -5.6656    0.0000 C   0  0  2  0  0  0  0  0  0  0  0  0
    4.8207    4.1760    0.0000 C   0  0  0  0  0  0  0  0  0  0  0  0
   12.4903   -3.9708    0.0000 C   0  0  0  0  0  0  0  0  0  0  0  0
    4.2026    6.0781    0.0000 C   0  0  0  0  0  0  0  0  0  0  0  0
   13.1116   -5.8718    0.0000 C   0  0  0  0  0  0  0  0  0  0  0  0
    3.8936    7.0292    0.0000 C   0  0  0  0  0  0  0  0  0  0  0  0
    3.5335    5.3350    0.0000 C   0  0  0  0  0  0  0  0  0  0  0  0
   13.4223   -6.8223    0.0000 C   0  0  0  0  0  0  0  0  0  0  0  0
   13.7795   -5.1275    0.0000 C   0  0  0  0  0  0  0  0  0  0  0  0
    2.9155    7.2371    0.0000 C   0  0  0  0  0  0  0  0  0  0  0  0
   14.4008   -7.0285    0.0000 C   0  0  0  0  0  0  0  0  0  0  0  0
    2.5553    5.5429    0.0000 C   0  0  0  0  0  0  0  0  0  0  0  0
   14.7580   -5.3337    0.0000 C   0  0  0  0  0  0  0  0  0  0  0  0
    2.2463    6.4939    0.0000 C   0  0  0  0  0  0  0  0  0  0  0  0
   15.0686   -6.2842    0.0000 C   0  0  0  0  0  0  0  0  0  0  0  0
    4.2537    8.7234    0.0000 C   0  0  0  0  0  0  0  0  0  0  0  0
   14.0436   -8.7234    0.0000 C   0  0  0  0  0  0  0  0  0  0  0  0
    8.6562    1.4480    0.0000 H   0  0  0  0  0  0  0  0  0  0  0  0
    8.6562   -1.2520    0.0000 H   0  0  0  0  0  0  0  0  0  0  0  0
    7.0916    1.0040    0.0000 H   0  0  0  0  0  0  0  0  0  0  0  0
   10.2138   -0.8030    0.0000 H   0  0  0  0  0  0  0  0  0  0  0  0
    7.1671   -1.0210    0.0000 H   0  0  0  0  0  0  0  0  0  0  0  0
    7.9562   -1.2774    0.0000 H   0  0  0  0  0  0  0  0  0  0  0  0
   10.1387    1.2119    0.0000 H   0  0  0  0  0  0  0  0  0  0  0  0
    9.3503    1.4696    0.0000 H   0  0  0  0  0  0  0  0  0  0  0  0
    8.6706    2.4723    0.0000 H   0  0  0  0  0  0  0  0  0  0  0  0
    6.0020    1.6052    0.0000 H   0  0  0  0  0  0  0  0  0  0  0  0
    8.6374   -2.2737    0.0000 H   0  0  0  0  0  0  0  0  0  0  0  0
   11.3045   -1.4020    0.0000 H   0  0  0  0  0  0  0  0  0  0  0  0
    5.9047    5.3799    0.0000 H   0  0  0  0  0  0  0  0  0  0  0  0
   11.6298   -4.1257    0.0000 H   0  0  0  0  0  0  0  0  0  0  0  0
    3.9998    2.8966    0.0000 H   0  0  0  0  0  0  0  0  0  0  0  0
    4.0457    2.0210    0.0000 H   0  0  0  0  0  0  0  0  0  0  0  0
    4.9213    2.0669    0.0000 H   0  0  0  0  0  0  0  0  0  0  0  0
    8.7049    5.4380    0.0000 H   0  0  0  0  0  0  0  0  0  0  0  0
    7.9236    5.8361    0.0000 H   0  0  0  0  0  0  0  0  0  0  0  0
    7.5256    5.0549    0.0000 H   0  0  0  0  0  0  0  0  0  0  0  0
   13.3089   -2.6900    0.0000 H   0  0  0  0  0  0  0  0  0  0  0  0
   13.2615   -1.8145    0.0000 H   0  0  0  0  0  0  0  0  0  0  0  0
   12.3860   -1.8619    0.0000 H   0  0  0  0  0  0  0  0  0  0  0  0
    8.6083   -5.2395    0.0000 H   0  0  0  0  0  0  0  0  0  0  0  0
    9.3902   -5.6362    0.0000 H   0  0  0  0  0  0  0  0  0  0  0  0
    9.7869   -4.8543    0.0000 H   0  0  0  0  0  0  0  0  0  0  0  0
    4.9892    6.4598    0.0000 H   0  0  0  0  0  0  0  0  0  0  0  0
   12.3257   -6.2549    0.0000 H   0  0  0  0  0  0  0  0  0  0  0  0
    4.5884    3.6011    0.0000 H   0  0  0  0  0  0  0  0  0  0  0  0
    5.3465    3.8474    0.0000 H   0  0  0  0  0  0  0  0  0  0  0  0
   12.7215   -3.3955    0.0000 H   0  0  0  0  0  0  0  0  0  0  0  0
   11.9639   -3.6431    0.0000 H   0  0  0  0  0  0  0  0  0  0  0  0
    6.4564    6.4844    0.0000 H   0  0  0  0  0  0  0  0  0  0  0  0
   11.6579   -6.9992    0.0000 H   0  0  0  0  0  0  0  0  0  0  0  0
    3.4277    3.9232    0.0000 H   0  0  0  0  0  0  0  0  0  0  0  0
   13.8829   -3.7155    0.0000 H   0  0  0  0  0  0  0  0  0  0  0  0
    3.7251    4.7453    0.0000 H   0  0  0  0  0  0  0  0  0  0  0  0
   13.0082   -7.2838    0.0000 H   0  0  0  0  0  0  0  0  0  0  0  0
   13.5868   -4.5382    0.0000 H   0  0  0  0  0  0  0  0  0  0  0  0
    2.1405    5.0821    0.0000 H   0  0  0  0  0  0  0  0  0  0  0  0
   15.1720   -4.8722    0.0000 H   0  0  0  0  0  0  0  0  0  0  0  0
    1.6399    6.6228    0.0000 H   0  0  0  0  0  0  0  0  0  0  0  0
    4.8434    8.9149    0.0000 H   0  0  0  0  0  0  0  0  0  0  0  0
    4.0621    9.3130    0.0000 H   0  0  0  0  0  0  0  0  0  0  0  0
    3.6641    8.5318    0.0000 H   0  0  0  0  0  0  0  0  0  0  0  0
    2.0000    8.3170    0.0000 H   0  0  0  0  0  0  0  0  0  0  0  0
   16.4612   -6.0290    0.0000 H   0  0  0  0  0  0  0  0  0  0  0  0
   13.5821   -8.3093    0.0000 H   0  0  0  0  0  0  0  0  0  0  0  0
   13.6295   -9.1848    0.0000 H   0  0  0  0  0  0  0  0  0  0  0  0
   14.5051   -9.1374    0.0000 H   0  0  0  0  0  0  0  0  0  0  0  0
  1 19  1  0  0  0  0
  1 21  1  0  0  0  0
  2 20  1  0  0  0  0
  2 22  1  0  0  0  0
  3 29  1  0  0  0  0
  3 37  1  0  0  0  0
  4 30  1  0  0  0  0
  4 38  1  0  0  0  0
  5 31  1  0  0  0  0
  5 39  1  0  0  0  0
  6 32  1  0  0  0  0
  6 40  1  0  0  0  0
  7 33  1  0  0  0  0
 35  7  1  1  0  0  0
  8 34  1  0  0  0  0
 36  8  1  1  0  0  0
 41  9  1  1  0  0  0
  9 91  1  0  0  0  0
 42 10  1  6  0  0  0
 10 92  1  0  0  0  0
 11 43  1  0  0  0  0
 11 93  1  0  0  0  0
 12 44  1  0  0  0  0
 12 94  1  0  0  0  0
 13 47  1  0  0  0  0
 13 57  1  0  0  0  0
 14 52  1  0  0  0  0
 14 58  1  0  0  0  0
 15 51  1  0  0  0  0
 15104  1  0  0  0  0
 16 56  1  0  0  0  0
 16105  1  0  0  0  0
 17 18  1  0  0  0  0
 17 19  1  0  0  0  0
 17 22  1  0  0  0  0
 17 59  1  1  0  0  0
 18 20  1  0  0  0  0
 18 21  1  0  0  0  0
 18 60  1  1  0  0  0
 19 23  1  1  0  0  0
 19 61  1  0  0  0  0
 20 24  1  1  0  0  0
 20 62  1  0  0  0  0
 21 63  1  0  0  0  0
 21 64  1  0  0  0  0
 22 65  1  0  0  0  0
 22 66  1  0  0  0  0
 23 25  2  0  0  0  0
 23 26  1  0  0  0  0
 24 27  2  0  0  0  0
 24 28  1  0  0  0  0
 25 30  1  0  0  0  0
 25 67  1  0  0  0  0
 26 29  2  0  0  0  0
 26 68  1  0  0  0  0
 27 32  1  0  0  0  0
 27 69  1  0  0  0  0
 28 31  2  0  0  0  0
 28 70  1  0  0  0  0
 29 33  1  0  0  0  0
 30 33  2  0  0  0  0
 31 34  1  0  0  0  0
 32 34  2  0  0  0  0
 35 41  1  0  0  0  0
 35 43  1  0  0  0  0
 35 71  1  0  0  0  0
 36 42  1  0  0  0  0
 36 44  1  0  0  0  0
 36 72  1  0  0  0  0
 37 73  1  0  0  0  0
 37 74  1  0  0  0  0
 37 75  1  0  0  0  0
 38 76  1  0  0  0  0
 38 77  1  0  0  0  0
 38 78  1  0  0  0  0
 39 79  1  0  0  0  0
 39 80  1  0  0  0  0
 39 81  1  0  0  0  0
 40 82  1  0  0  0  0
 40 83  1  0  0  0  0
 40 84  1  0  0  0  0
 41 45  1  0  0  0  0
 41 85  1  0  0  0  0
 42 46  1  0  0  0  0
 42 86  1  0  0  0  0
 43 87  1  0  0  0  0
 43 88  1  0  0  0  0
 44 89  1  0  0  0  0
 44 90  1  0  0  0  0
 45 47  2  0  0  0  0
 45 48  1  0  0  0  0
 46 49  2  0  0  0  0
 46 50  1  0  0  0  0
 47 51  1  0  0  0  0
 48 53  2  0  0  0  0
 48 95  1  0  0  0  0
 49 52  1  0  0  0  0
 49 96  1  0  0  0  0
 50 54  2  0  0  0  0
 50 97  1  0  0  0  0
 51 55  2  0  0  0  0
 52 56  2  0  0  0  0
 53 55  1  0  0  0  0
 53 98  1  0  0  0  0
 54 56  1  0  0  0  0
 54 99  1  0  0  0  0
 55100  1  0  0  0  0
 57101  1  0  0  0  0
 57102  1  0  0  0  0
 57103  1  0  0  0  0
 58106  1  0  0  0  0
 58107  1  0  0  0  0
 58108  1  0  0  0  0
M  END
> <PUBCHEM_COMPOUND_CID>
56673402

> <PUBCHEM_COMPOUND_CANONICALIZED>
1

> <PUBCHEM_CACTVS_COMPLEXITY>
1190

> <PUBCHEM_CACTVS_HBOND_ACCEPTOR>
16

> <PUBCHEM_CACTVS_HBOND_DONOR>
6

> <PUBCHEM_CACTVS_ROTATABLE_BOND>
18

> <PUBCHEM_CACTVS_SUBSKEYS>
AAADcfB8PgAAAAAAAAAAAAAAAAAAASJAAAAwYMGAAAASAAABVAAAGgAACAAADRSgmAIyBoAABgCAAiBCAAACCAAgIAAIiAAGiIgNNyKGMRqCeCOlwBULuAfA4PwOoAABCAAIQABAAAIQABCAAAAAAAAAAA==

> <PUBCHEM_IUPAC_OPENEYE_NAME>
(1S,2S)-2-[4-[(3R,3aS,6R,6aS)-6-[4-[(1S,2R)-2-hydroxy-2-(3-hydroxy-2-methoxy-phenyl)-1-(hydroxymethyl)ethoxy]-3,5-dimethoxy-phenyl]-1,3,3a,4,6,6a-hexahydrofuro[3,4-c]furan-3-yl]-2,6-dimethoxy-phenoxy]-1-(4-hydroxy-3-methoxy-phenyl)propane-1,3-diol

> <PUBCHEM_IUPAC_CAS_NAME>
(1S,2S)-2-[4-[(3R,3aS,6R,6aS)-6-[4-[(1R,2S)-1,3-dihydroxy-1-(3-hydroxy-2-methoxyphenyl)propan-2-yl]oxy-3,5-dimethoxyphenyl]-1,3,3a,4,6,6a-hexahydrofuro[3,4-c]furan-3-yl]-2,6-dimethoxyphenoxy]-1-(4-hydroxy-3-methoxyphenyl)propane-1,3-diol

> <PUBCHEM_IUPAC_NAME_MARKUP>
(1<I>S</I>,2<I>S</I>)-2-[4-[(3<I>R</I>,3<I>a</I><I>S</I>,6<I>R</I>,6<I>a</I><I>S</I>)-6-[4-[(1<I>R</I>,2<I>S</I>)-1,3-dihydroxy-1-(3-hydroxy-2-methoxyphenyl)propan-2-yl]oxy-3,5-dimethoxyphenyl]-1,3,3<I>a</I>,4,6,6<I>a</I>-hexahydrofuro[3,4-c]furan-3-yl]-2,6-dimethoxyphenoxy]-1-(4-hydroxy-3-methoxyphenyl)propane-1,3-diol

> <PUBCHEM_IUPAC_NAME>
(1S,2S)-2-[4-[(3R,3aS,6R,6aS)-6-[4-[(1R,2S)-1,3-dihydroxy-1-(3-hydroxy-2-methoxyphenyl)propan-2-yl]oxy-3,5-dimethoxyphenyl]-1,3,3a,4,6,6a-hexahydrofuro[3,4-c]furan-3-yl]-2,6-dimethoxyphenoxy]-1-(4-hydroxy-3-methoxyphenyl)propane-1,3-diol

> <PUBCHEM_IUPAC_SYSTEMATIC_NAME>
(1S,2S)-2-[4-[(3R,3aS,6R,6aS)-6-[3,5-dimethoxy-4-[(1R,2S)-1-(2-methoxy-3-oxidanyl-phenyl)-1,3-bis(oxidanyl)propan-2-yl]oxy-phenyl]-1,3,3a,4,6,6a-hexahydrofuro[3,4-c]furan-3-yl]-2,6-dimethoxy-phenoxy]-1-(3-methoxy-4-oxidanyl-phenyl)propane-1,3-diol

> <PUBCHEM_IUPAC_TRADITIONAL_NAME>
(1S,2S)-2-[4-[(3R,3aS,6R,6aS)-6-[4-[(1S,2R)-2-hydroxy-2-(3-hydroxy-2-methoxy-phenyl)-1-methylol-ethoxy]-3,5-dimethoxy-phenyl]-1,3,3a,4,6,6a-hexahydrofuro[3,4-c]furan-3-yl]-2,6-dimethoxy-phenoxy]-1-(4-hydroxy-3-methoxy-phenyl)propane-1,3-diol

> <PUBCHEM_IUPAC_INCHI>
InChI=1S/C42H50O16/c1-49-29-12-21(10-11-27(29)45)36(47)34(17-43)57-41-30(50-2)13-22(14-31(41)51-3)38-25-19-56-39(26(25)20-55-38)23-15-32(52-4)42(33(16-23)53-5)58-35(18-44)37(48)24-8-7-9-28(46)40(24)54-6/h7-16,25-26,34-39,43-48H,17-20H2,1-6H3/t25-,26-,34+,35+,36+,37-,38+,39+/m1/s1

> <PUBCHEM_IUPAC_INCHIKEY>
NQKMDFWGODIBLN-PJYBPCBOSA-N

> <PUBCHEM_XLOGP3_AA>
2.6

> <PUBCHEM_EXACT_MASS>
810.309886

> <PUBCHEM_MOLECULAR_FORMULA>
C42H50O16

> <PUBCHEM_MOLECULAR_WEIGHT>
810.8

> <PUBCHEM_OPENEYE_CAN_SMILES>
COC1=CC(=CC(=C1OC(CO)C(C2=CC(=C(C=C2)O)OC)O)OC)C3C4COC(C4CO3)C5=CC(=C(C(=C5)OC)OC(CO)C(C6=C(C(=CC=C6)O)OC)O)OC

> <PUBCHEM_OPENEYE_ISO_SMILES>
COC1=CC(=CC(=C1O[C@@H](CO)[C@H](C2=CC(=C(C=C2)O)OC)O)OC)[C@H]3[C@@H]4CO[C@H]([C@@H]4CO3)C5=CC(=C(C(=C5)OC)O[C@@H](CO)[C@@H](C6=C(C(=CC=C6)O)OC)O)OC

> <PUBCHEM_CACTVS_TPSA>
214

> <PUBCHEM_MONOISOTOPIC_WEIGHT>
810.309886

> <PUBCHEM_TOTAL_CHARGE>
0

> <PUBCHEM_HEAVY_ATOM_COUNT>
58

> <PUBCHEM_ATOM_DEF_STEREO_COUNT>
8

> <PUBCHEM_ATOM_UDEF_STEREO_COUNT>
0

> <PUBCHEM_BOND_DEF_STEREO_COUNT>
0

> <PUBCHEM_BOND_UDEF_STEREO_COUNT>
0

> <PUBCHEM_ISOTOPIC_ATOM_COUNT>
0

> <PUBCHEM_COMPONENT_COUNT>
1

> <PUBCHEM_CACTVS_TAUTO_COUNT>
-1

> <PUBCHEM_COORDINATE_TYPE>
1
5
255

> <PUBCHEM_BONDANNOTATIONS>
42  10  6
17  59  5
18  60  5
19  23  5
20  24  5
23  25  8
23  26  8
24  27  8
24  28  8
25  30  8
26  29  8
27  32  8
28  31  8
29  33  8
30  33  8
31  34  8
32  34  8
45  47  8
45  48  8
46  49  8
46  50  8
47  51  8
48  53  8
49  52  8
50  54  8
51  55  8
52  56  8
53  55  8
54  56  8
35  7  5
36  8  5
41  9  5

$$$$
