137321184
  -OEChem-09102006302D

140141  0     1  0  0  0  0  0999 V2000
    7.1962   -5.0950    0.0000 O   0  0  0  0  0  0  0  0  0  0  0  0
    8.9282   -5.0950    0.0000 O   0  0  0  0  0  0  0  0  0  0  0  0
    7.1962   -8.0950    0.0000 O   0  0  0  0  0  0  0  0  0  0  0  0
    5.4641   -7.0950    0.0000 O   0  0  0  0  0  0  0  0  0  0  0  0
    8.9282   -7.0950    0.0000 O   0  0  0  0  0  0  0  0  0  0  0  0
   10.6603   -2.0950    0.0000 O   0  0  0  0  0  0  0  0  0  0  0  0
    5.4641   -4.0950    0.0000 O   0  0  0  0  0  0  0  0  0  0  0  0
    8.0622   -2.5950    0.0000 O   0  0  0  0  0  0  0  0  0  0  0  0
   11.5263   -2.5950    0.0000 O   0  0  0  0  0  0  0  0  0  0  0  0
    6.3301    0.4050    0.0000 O   0  0  0  0  0  0  0  0  0  0  0  0
   10.6603   -4.0950    0.0000 N   0  0  0  0  0  0  0  0  0  0  0  0
    7.1962    1.9050    0.0000 N   0  0  0  0  0  0  0  0  0  0  0  0
    7.1962   -7.0950    0.0000 C   0  0  1  0  0  0  0  0  0  0  0  0
    6.3301   -6.5950    0.0000 C   0  0  2  0  0  0  0  0  0  0  0  0
    8.0622   -6.5950    0.0000 C   0  0  2  0  0  0  0  0  0  0  0  0
    6.3301   -5.5950    0.0000 C   0  0  1  0  0  0  0  0  0  0  0  0
    8.0622   -5.5950    0.0000 C   0  0  2  0  0  0  0  0  0  0  0  0
    9.7942   -3.5950    0.0000 C   0  0  2  0  0  0  0  0  0  0  0  0
    9.7942   -2.5950    0.0000 C   0  0  1  0  0  0  0  0  0  0  0  0
    8.9282   -4.0950    0.0000 C   0  0  0  0  0  0  0  0  0  0  0  0
    5.4641   -5.0950    0.0000 C   0  0  0  0  0  0  0  0  0  0  0  0
    8.9282   -2.0950    0.0000 C   0  0  1  0  0  0  0  0  0  0  0  0
    8.9282   -1.0950    0.0000 C   0  0  0  0  0  0  0  0  0  0  0  0
    8.0622   -0.5950    0.0000 C   0  0  0  0  0  0  0  0  0  0  0  0
   11.5263   -3.5950    0.0000 C   0  0  0  0  0  0  0  0  0  0  0  0
   12.3923   -4.0950    0.0000 C   0  0  0  0  0  0  0  0  0  0  0  0
   13.2583   -3.5950    0.0000 C   0  0  0  0  0  0  0  0  0  0  0  0
   14.1244   -4.0950    0.0000 C   0  0  0  0  0  0  0  0  0  0  0  0
   14.9904   -3.5950    0.0000 C   0  0  0  0  0  0  0  0  0  0  0  0
   15.8564   -4.0950    0.0000 C   0  0  0  0  0  0  0  0  0  0  0  0
   16.7224   -3.5950    0.0000 C   0  0  0  0  0  0  0  0  0  0  0  0
   17.5885   -4.0950    0.0000 C   0  0  0  0  0  0  0  0  0  0  0  0
   18.4545   -3.5950    0.0000 C   0  0  0  0  0  0  0  0  0  0  0  0
   19.3205   -4.0950    0.0000 C   0  0  0  0  0  0  0  0  0  0  0  0
    8.0622    0.4050    0.0000 C   0  0  0  0  0  0  0  0  0  0  0  0
   20.1865   -3.5950    0.0000 C   0  0  0  0  0  0  0  0  0  0  0  0
   21.0526   -4.0950    0.0000 C   0  0  0  0  0  0  0  0  0  0  0  0
   21.9186   -3.5950    0.0000 C   0  0  0  0  0  0  0  0  0  0  0  0
   22.7846   -4.0950    0.0000 C   0  0  0  0  0  0  0  0  0  0  0  0
   23.6506   -3.5950    0.0000 C   0  0  0  0  0  0  0  0  0  0  0  0
   24.5167   -4.0950    0.0000 C   0  0  0  0  0  0  0  0  0  0  0  0
    7.1962    0.9050    0.0000 C   0  0  0  0  0  0  0  0  0  0  0  0
   25.3827   -3.5950    0.0000 C   0  0  0  0  0  0  0  0  0  0  0  0
   26.2487   -4.0950    0.0000 C   0  0  0  0  0  0  0  0  0  0  0  0
    6.3301    2.4050    0.0000 C   0  0  0  0  0  0  0  0  0  0  0  0
    6.3301    3.4050    0.0000 C   0  0  0  0  0  0  0  0  0  0  0  0
   27.1147   -3.5950    0.0000 C   0  0  0  0  0  0  0  0  0  0  0  0
    5.4641    3.9050    0.0000 C   0  0  0  0  0  0  0  0  0  0  0  0
    5.4641    4.9050    0.0000 C   0  0  0  0  0  0  0  0  0  0  0  0
    4.5981    5.4050    0.0000 C   0  0  0  0  0  0  0  0  0  0  0  0
   27.9808   -4.0950    0.0000 C   0  0  0  0  0  0  0  0  0  0  0  0
    4.5981    6.4050    0.0000 C   0  0  0  0  0  0  0  0  0  0  0  0
    3.7320    6.9050    0.0000 C   0  0  0  0  0  0  0  0  0  0  0  0
    2.8660    6.4050    0.0000 C   0  0  0  0  0  0  0  0  0  0  0  0
    3.7320    7.9050    0.0000 C   0  0  0  0  0  0  0  0  0  0  0  0
    2.0000    6.9050    0.0000 C   0  0  0  0  0  0  0  0  0  0  0  0
    2.8660    8.4050    0.0000 C   0  0  0  0  0  0  0  0  0  0  0  0
    2.0000    7.9050    0.0000 C   0  0  0  0  0  0  0  0  0  0  0  0
    6.6592   -7.4050    0.0000 H   0  0  0  0  0  0  0  0  0  0  0  0
    6.3301   -7.2150    0.0000 H   0  0  0  0  0  0  0  0  0  0  0  0
    8.0622   -7.2150    0.0000 H   0  0  0  0  0  0  0  0  0  0  0  0
    6.3301   -4.9750    0.0000 H   0  0  0  0  0  0  0  0  0  0  0  0
    8.0622   -4.9750    0.0000 H   0  0  0  0  0  0  0  0  0  0  0  0
    9.7942   -4.2150    0.0000 H   0  0  0  0  0  0  0  0  0  0  0  0
    9.7942   -1.9750    0.0000 H   0  0  0  0  0  0  0  0  0  0  0  0
    8.7162   -3.5124    0.0000 H   0  0  0  0  0  0  0  0  0  0  0  0
    8.3176   -4.2027    0.0000 H   0  0  0  0  0  0  0  0  0  0  0  0
    4.8535   -4.9873    0.0000 H   0  0  0  0  0  0  0  0  0  0  0  0
    5.2520   -5.6776    0.0000 H   0  0  0  0  0  0  0  0  0  0  0  0
    8.9282   -2.7150    0.0000 H   0  0  0  0  0  0  0  0  0  0  0  0
    9.5388   -1.2027    0.0000 H   0  0  0  0  0  0  0  0  0  0  0  0
    9.1403   -0.5124    0.0000 H   0  0  0  0  0  0  0  0  0  0  0  0
   10.6603   -4.7150    0.0000 H   0  0  0  0  0  0  0  0  0  0  0  0
    6.6592   -8.4050    0.0000 H   0  0  0  0  0  0  0  0  0  0  0  0
    4.9272   -6.7850    0.0000 H   0  0  0  0  0  0  0  0  0  0  0  0
    9.4651   -6.7850    0.0000 H   0  0  0  0  0  0  0  0  0  0  0  0
    7.4516   -0.4873    0.0000 H   0  0  0  0  0  0  0  0  0  0  0  0
    7.8501   -1.1776    0.0000 H   0  0  0  0  0  0  0  0  0  0  0  0
   11.9938   -4.5700    0.0000 H   0  0  0  0  0  0  0  0  0  0  0  0
   12.7908   -4.5700    0.0000 H   0  0  0  0  0  0  0  0  0  0  0  0
   13.6569   -3.1200    0.0000 H   0  0  0  0  0  0  0  0  0  0  0  0
   12.8598   -3.1200    0.0000 H   0  0  0  0  0  0  0  0  0  0  0  0
   13.7258   -4.5700    0.0000 H   0  0  0  0  0  0  0  0  0  0  0  0
   14.5229   -4.5700    0.0000 H   0  0  0  0  0  0  0  0  0  0  0  0
   10.6603   -1.4750    0.0000 H   0  0  0  0  0  0  0  0  0  0  0  0
   15.3889   -3.1200    0.0000 H   0  0  0  0  0  0  0  0  0  0  0  0
   14.5919   -3.1200    0.0000 H   0  0  0  0  0  0  0  0  0  0  0  0
   15.4579   -4.5700    0.0000 H   0  0  0  0  0  0  0  0  0  0  0  0
   16.2549   -4.5700    0.0000 H   0  0  0  0  0  0  0  0  0  0  0  0
   17.1210   -3.1200    0.0000 H   0  0  0  0  0  0  0  0  0  0  0  0
   16.3239   -3.1200    0.0000 H   0  0  0  0  0  0  0  0  0  0  0  0
   17.1899   -4.5700    0.0000 H   0  0  0  0  0  0  0  0  0  0  0  0
   17.9870   -4.5700    0.0000 H   0  0  0  0  0  0  0  0  0  0  0  0
   18.8530   -3.1200    0.0000 H   0  0  0  0  0  0  0  0  0  0  0  0
   18.0560   -3.1200    0.0000 H   0  0  0  0  0  0  0  0  0  0  0  0
   18.9220   -4.5700    0.0000 H   0  0  0  0  0  0  0  0  0  0  0  0
   19.7190   -4.5700    0.0000 H   0  0  0  0  0  0  0  0  0  0  0  0
    4.9272   -3.7850    0.0000 H   0  0  0  0  0  0  0  0  0  0  0  0
    8.6728    0.2973    0.0000 H   0  0  0  0  0  0  0  0  0  0  0  0
    8.2742    0.9876    0.0000 H   0  0  0  0  0  0  0  0  0  0  0  0
   20.5851   -3.1200    0.0000 H   0  0  0  0  0  0  0  0  0  0  0  0
   19.7880   -3.1200    0.0000 H   0  0  0  0  0  0  0  0  0  0  0  0
    7.5252   -2.2850    0.0000 H   0  0  0  0  0  0  0  0  0  0  0  0
   20.6540   -4.5700    0.0000 H   0  0  0  0  0  0  0  0  0  0  0  0
   21.4511   -4.5700    0.0000 H   0  0  0  0  0  0  0  0  0  0  0  0
   22.3171   -3.1200    0.0000 H   0  0  0  0  0  0  0  0  0  0  0  0
   21.5201   -3.1200    0.0000 H   0  0  0  0  0  0  0  0  0  0  0  0
   22.3861   -4.5700    0.0000 H   0  0  0  0  0  0  0  0  0  0  0  0
   23.1831   -4.5700    0.0000 H   0  0  0  0  0  0  0  0  0  0  0  0
   24.0492   -3.1200    0.0000 H   0  0  0  0  0  0  0  0  0  0  0  0
   23.2521   -3.1200    0.0000 H   0  0  0  0  0  0  0  0  0  0  0  0
   24.1181   -4.5700    0.0000 H   0  0  0  0  0  0  0  0  0  0  0  0
   24.9152   -4.5700    0.0000 H   0  0  0  0  0  0  0  0  0  0  0  0
   25.7812   -3.1200    0.0000 H   0  0  0  0  0  0  0  0  0  0  0  0
   24.9842   -3.1200    0.0000 H   0  0  0  0  0  0  0  0  0  0  0  0
   25.8502   -4.5700    0.0000 H   0  0  0  0  0  0  0  0  0  0  0  0
   26.6472   -4.5700    0.0000 H   0  0  0  0  0  0  0  0  0  0  0  0
    7.7331    2.2150    0.0000 H   0  0  0  0  0  0  0  0  0  0  0  0
    5.7196    2.5127    0.0000 H   0  0  0  0  0  0  0  0  0  0  0  0
    6.1181    1.8224    0.0000 H   0  0  0  0  0  0  0  0  0  0  0  0
    6.9407    3.2973    0.0000 H   0  0  0  0  0  0  0  0  0  0  0  0
    6.5422    3.9876    0.0000 H   0  0  0  0  0  0  0  0  0  0  0  0
   27.5133   -3.1200    0.0000 H   0  0  0  0  0  0  0  0  0  0  0  0
   26.7162   -3.1200    0.0000 H   0  0  0  0  0  0  0  0  0  0  0  0
    4.8535    4.0127    0.0000 H   0  0  0  0  0  0  0  0  0  0  0  0
    5.2520    3.3224    0.0000 H   0  0  0  0  0  0  0  0  0  0  0  0
    6.0747    4.7973    0.0000 H   0  0  0  0  0  0  0  0  0  0  0  0
    5.6762    5.4876    0.0000 H   0  0  0  0  0  0  0  0  0  0  0  0
    3.9875    5.5127    0.0000 H   0  0  0  0  0  0  0  0  0  0  0  0
    4.3860    4.8224    0.0000 H   0  0  0  0  0  0  0  0  0  0  0  0
   27.6708   -4.6319    0.0000 H   0  0  0  0  0  0  0  0  0  0  0  0
   28.5177   -4.4050    0.0000 H   0  0  0  0  0  0  0  0  0  0  0  0
   28.2908   -3.5581    0.0000 H   0  0  0  0  0  0  0  0  0  0  0  0
    5.2087    6.2973    0.0000 H   0  0  0  0  0  0  0  0  0  0  0  0
    4.8101    6.9876    0.0000 H   0  0  0  0  0  0  0  0  0  0  0  0
    2.8660    5.7850    0.0000 H   0  0  0  0  0  0  0  0  0  0  0  0
    4.2690    8.2150    0.0000 H   0  0  0  0  0  0  0  0  0  0  0  0
    1.4631    6.5950    0.0000 H   0  0  0  0  0  0  0  0  0  0  0  0
    2.8660    9.0250    0.0000 H   0  0  0  0  0  0  0  0  0  0  0  0
    1.4631    8.2150    0.0000 H   0  0  0  0  0  0  0  0  0  0  0  0
  1 16  1  0  0  0  0
  1 17  1  0  0  0  0
 17  2  1  6  0  0  0
  2 20  1  0  0  0  0
 13  3  1  1  0  0  0
  3 74  1  0  0  0  0
 14  4  1  1  0  0  0
  4 75  1  0  0  0  0
 15  5  1  6  0  0  0
  5 76  1  0  0  0  0
 19  6  1  1  0  0  0
  6 85  1  0  0  0  0
  7 21  1  0  0  0  0
  7 98  1  0  0  0  0
 22  8  1  6  0  0  0
  8103  1  0  0  0  0
  9 25  2  0  0  0  0
 10 42  2  0  0  0  0
 18 11  1  1  0  0  0
 11 25  1  0  0  0  0
 11 73  1  0  0  0  0
 12 42  1  0  0  0  0
 12 45  1  0  0  0  0
 12118  1  0  0  0  0
 13 14  1  0  0  0  0
 13 15  1  0  0  0  0
 13 59  1  0  0  0  0
 14 16  1  0  0  0  0
 14 60  1  0  0  0  0
 15 17  1  0  0  0  0
 15 61  1  0  0  0  0
 16 21  1  1  0  0  0
 16 62  1  0  0  0  0
 17 63  1  0  0  0  0
 18 19  1  0  0  0  0
 18 20  1  0  0  0  0
 18 64  1  0  0  0  0
 19 22  1  0  0  0  0
 19 65  1  0  0  0  0
 20 66  1  0  0  0  0
 20 67  1  0  0  0  0
 21 68  1  0  0  0  0
 21 69  1  0  0  0  0
 22 23  1  0  0  0  0
 22 70  1  0  0  0  0
 23 24  1  0  0  0  0
 23 71  1  0  0  0  0
 23 72  1  0  0  0  0
 24 35  1  0  0  0  0
 24 77  1  0  0  0  0
 24 78  1  0  0  0  0
 25 26  1  0  0  0  0
 26 27  1  0  0  0  0
 26 79  1  0  0  0  0
 26 80  1  0  0  0  0
 27 28  1  0  0  0  0
 27 81  1  0  0  0  0
 27 82  1  0  0  0  0
 28 29  1  0  0  0  0
 28 83  1  0  0  0  0
 28 84  1  0  0  0  0
 29 30  1  0  0  0  0
 29 86  1  0  0  0  0
 29 87  1  0  0  0  0
 30 31  1  0  0  0  0
 30 88  1  0  0  0  0
 30 89  1  0  0  0  0
 31 32  1  0  0  0  0
 31 90  1  0  0  0  0
 31 91  1  0  0  0  0
 32 33  1  0  0  0  0
 32 92  1  0  0  0  0
 32 93  1  0  0  0  0
 33 34  1  0  0  0  0
 33 94  1  0  0  0  0
 33 95  1  0  0  0  0
 34 36  1  0  0  0  0
 34 96  1  0  0  0  0
 34 97  1  0  0  0  0
 35 42  1  0  0  0  0
 35 99  1  0  0  0  0
 35100  1  0  0  0  0
 36 37  1  0  0  0  0
 36101  1  0  0  0  0
 36102  1  0  0  0  0
 37 38  1  0  0  0  0
 37104  1  0  0  0  0
 37105  1  0  0  0  0
 38 39  1  0  0  0  0
 38106  1  0  0  0  0
 38107  1  0  0  0  0
 39 40  1  0  0  0  0
 39108  1  0  0  0  0
 39109  1  0  0  0  0
 40 41  1  0  0  0  0
 40110  1  0  0  0  0
 40111  1  0  0  0  0
 41 43  1  0  0  0  0
 41112  1  0  0  0  0
 41113  1  0  0  0  0
 43 44  1  0  0  0  0
 43114  1  0  0  0  0
 43115  1  0  0  0  0
 44 47  1  0  0  0  0
 44116  1  0  0  0  0
 44117  1  0  0  0  0
 45 46  1  0  0  0  0
 45119  1  0  0  0  0
 45120  1  0  0  0  0
 46 48  1  0  0  0  0
 46121  1  0  0  0  0
 46122  1  0  0  0  0
 47 51  1  0  0  0  0
 47123  1  0  0  0  0
 47124  1  0  0  0  0
 48 49  1  0  0  0  0
 48125  1  0  0  0  0
 48126  1  0  0  0  0
 49 50  1  0  0  0  0
 49127  1  0  0  0  0
 49128  1  0  0  0  0
 50 52  1  0  0  0  0
 50129  1  0  0  0  0
 50130  1  0  0  0  0
 51131  1  0  0  0  0
 51132  1  0  0  0  0
 51133  1  0  0  0  0
 52 53  1  0  0  0  0
 52134  1  0  0  0  0
 52135  1  0  0  0  0
 53 54  2  0  0  0  0
 53 55  1  0  0  0  0
 54 56  1  0  0  0  0
 54136  1  0  0  0  0
 55 57  2  0  0  0  0
 55137  1  0  0  0  0
 56 58  2  0  0  0  0
 56138  1  0  0  0  0
 57 58  1  0  0  0  0
 57139  1  0  0  0  0
 58140  1  0  0  0  0
M  END
> <PUBCHEM_COMPOUND_CID>
137321184

> <PUBCHEM_COMPOUND_CANONICALIZED>
1

> <PUBCHEM_CACTVS_COMPLEXITY>
1000

> <PUBCHEM_CACTVS_HBOND_ACCEPTOR>
10

> <PUBCHEM_CACTVS_HBOND_DONOR>
8

> <PUBCHEM_CACTVS_ROTATABLE_BOND>
36

> <PUBCHEM_CACTVS_SUBSKEYS>
AAADcfB/PAAAAAAAAAAAAAAAAAAAAAAAAAA0QAAAAAAAAAABAAAAHgAQCAAADDzxmAcyCILABgCIAiFSEAACAAAgAAAIiIEIAIgbMDKAkRCnYAAnlgCfiAfY/O7OAAAAAAAAAAAAAAAAAAAAAAAAAAAAAA==

> <PUBCHEM_IUPAC_OPENEYE_NAME>
N-[(1S,2S,3R)-2,3-dihydroxy-7-oxo-7-(6-phenylhexylamino)-1-[[(2S,3R,4S,5R,6R)-3,4,5-trihydroxy-6-(hydroxymethyl)tetrahydropyran-2-yl]oxymethyl]heptyl]icosanamide

> <PUBCHEM_IUPAC_CAS_NAME>
N-[(2S,3S,4R)-3,4-dihydroxy-8-oxo-8-(6-phenylhexylamino)-1-[[(2S,3R,4S,5R,6R)-3,4,5-trihydroxy-6-(hydroxymethyl)-2-oxanyl]oxy]octan-2-yl]eicosanamide

> <PUBCHEM_IUPAC_NAME_MARKUP>
<I>N</I>-[(2<I>S</I>,3<I>S</I>,4<I>R</I>)-3,4-dihydroxy-8-oxo-8-(6-phenylhexylamino)-1-[(2<I>S</I>,3<I>R</I>,4<I>S</I>,5<I>R</I>,6<I>R</I>)-3,4,5-trihydroxy-6-(hydroxymethyl)oxan-2-yl]oxyoctan-2-yl]icosanamide

> <PUBCHEM_IUPAC_NAME>
N-[(2S,3S,4R)-3,4-dihydroxy-8-oxo-8-(6-phenylhexylamino)-1-[(2S,3R,4S,5R,6R)-3,4,5-trihydroxy-6-(hydroxymethyl)oxan-2-yl]oxyoctan-2-yl]icosanamide

> <PUBCHEM_IUPAC_SYSTEMATIC_NAME>
N-[(2S,3S,4R)-1-[(2S,3R,4S,5R,6R)-6-(hydroxymethyl)-3,4,5-tris(oxidanyl)oxan-2-yl]oxy-3,4-bis(oxidanyl)-8-oxidanylidene-8-(6-phenylhexylamino)octan-2-yl]icosanamide

> <PUBCHEM_IUPAC_TRADITIONAL_NAME>
N-[(1S,2S,3R)-2,3-dihydroxy-7-keto-7-(6-phenylhexylamino)-1-[[(2S,3R,4S,5R,6R)-3,4,5-trihydroxy-6-methylol-tetrahydropyran-2-yl]oxymethyl]heptyl]arachidamide

> <PUBCHEM_IUPAC_INCHI>
InChI=1S/C46H82N2O10/c1-2-3-4-5-6-7-8-9-10-11-12-13-14-15-16-17-24-31-41(52)48-37(35-57-46-45(56)44(55)43(54)39(34-49)58-46)42(53)38(50)30-26-32-40(51)47-33-25-19-18-21-27-36-28-22-20-23-29-36/h20,22-23,28-29,37-39,42-46,49-50,53-56H,2-19,21,24-27,30-35H2,1H3,(H,47,51)(H,48,52)/t37-,38+,39+,42-,43-,44-,45+,46-/m0/s1

> <PUBCHEM_IUPAC_INCHIKEY>
XSVXHEMLPLUNSG-DOWKDNTMSA-N

> <PUBCHEM_XLOGP3_AA>
9.3

> <PUBCHEM_EXACT_MASS>
822.596947

> <PUBCHEM_MOLECULAR_FORMULA>
C46H82N2O10

> <PUBCHEM_MOLECULAR_WEIGHT>
823.1

> <PUBCHEM_OPENEYE_CAN_SMILES>
CCCCCCCCCCCCCCCCCCCC(=O)NC(COC1C(C(C(C(O1)CO)O)O)O)C(C(CCCC(=O)NCCCCCCC2=CC=CC=C2)O)O

> <PUBCHEM_OPENEYE_ISO_SMILES>
CCCCCCCCCCCCCCCCCCCC(=O)N[C@@H](CO[C@@H]1[C@@H]([C@H]([C@H]([C@H](O1)CO)O)O)O)[C@@H]([C@@H](CCCC(=O)NCCCCCCC2=CC=CC=C2)O)O

> <PUBCHEM_CACTVS_TPSA>
198

> <PUBCHEM_MONOISOTOPIC_WEIGHT>
822.596947

> <PUBCHEM_TOTAL_CHARGE>
0

> <PUBCHEM_HEAVY_ATOM_COUNT>
58

> <PUBCHEM_ATOM_DEF_STEREO_COUNT>
8

> <PUBCHEM_ATOM_UDEF_STEREO_COUNT>
0

> <PUBCHEM_BOND_DEF_STEREO_COUNT>
0

> <PUBCHEM_BOND_UDEF_STEREO_COUNT>
0

> <PUBCHEM_ISOTOPIC_ATOM_COUNT>
0

> <PUBCHEM_COMPONENT_COUNT>
1

> <PUBCHEM_CACTVS_TAUTO_COUNT>
-1

> <PUBCHEM_COORDINATE_TYPE>
1
5
255

> <PUBCHEM_BONDANNOTATIONS>
18  11  5
16  21  5
17  2  6
13  3  5
14  4  5
15  5  6
53  54  8
53  55  8
54  56  8
55  57  8
56  58  8
57  58  8
19  6  5
22  8  6

$$$$
