71664512
  -OEChem-09152005292D

153162  0     1  0  0  0  0  0999 V2000
    8.0420    5.8859    0.0000 O   0  0  0  0  0  0  0  0  0  0  0  0
    9.8145    6.7806    0.0000 O   0  0  0  0  0  0  0  0  0  0  0  0
    9.4651   -2.3582    0.0000 O   0  0  0  0  0  0  0  0  0  0  0  0
    7.7331   -2.3582    0.0000 O   0  0  0  0  0  0  0  0  0  0  0  0
    9.4651   -4.3582    0.0000 O   0  0  0  0  0  0  0  0  0  0  0  0
    7.7331   -5.3582    0.0000 O   0  0  0  0  0  0  0  0  0  0  0  0
    6.0010   -4.3582    0.0000 O   0  0  0  0  0  0  0  0  0  0  0  0
   11.0927   -4.9506    0.0000 O   0  0  0  0  0  0  0  0  0  0  0  0
    9.2331   -6.2242    0.0000 O   0  0  0  0  0  0  0  0  0  0  0  0
    5.1350   -2.8582    0.0000 O   0  0  0  0  0  0  0  0  0  0  0  0
   10.1492   -2.4788    0.0000 O   0  0  0  0  0  0  0  0  0  0  0  0
    6.7332   -7.0903    0.0000 O   0  0  0  0  0  0  0  0  0  0  0  0
   12.1188   -2.1316    0.0000 O   0  0  0  0  0  0  0  0  0  0  0  0
    4.2690   -5.3582    0.0000 O   0  0  0  0  0  0  0  0  0  0  0  0
   13.4044   -3.6636    0.0000 O   0  0  0  0  0  0  0  0  0  0  0  0
    7.7331   -8.8223    0.0000 O   0  0  0  0  0  0  0  0  0  0  0  0
    2.5369   -4.3582    0.0000 O   0  0  0  0  0  0  0  0  0  0  0  0
    9.7331   -8.8223    0.0000 O   0  0  0  0  0  0  0  0  0  0  0  0
    2.5369   -2.3582    0.0000 O   0  0  0  0  0  0  0  0  0  0  0  0
   12.3783   -6.4827    0.0000 O   0  0  0  0  0  0  0  0  0  0  0  0
    9.4359    3.8386    0.0000 C   0  0  1  0  0  0  0  0  0  0  0  0
    8.5679    3.3420    0.0000 C   0  0  2  0  0  0  0  0  0  0  0  0
    9.2304    4.8113    0.0000 C   0  0  2  0  0  0  0  0  0  0  0  0
    8.5641    2.3420    0.0000 C   0  0  1  0  0  0  0  0  0  0  0  0
    8.2421    4.9181    0.0000 C   0  0  3  0  0  0  0  0  0  0  0  0
    9.4282    1.8387    0.0000 C   0  0  2  0  0  0  0  0  0  0  0  0
    7.8335    4.0119    0.0000 C   0  0  0  0  0  0  0  0  0  0  0  0
   10.3000    3.3353    0.0000 C   0  0  0  0  0  0  0  0  0  0  0  0
    9.6327    5.7139    0.0000 C   0  0  1  0  0  0  0  0  0  0  0  0
   10.2961    2.3353    0.0000 C   0  0  0  0  0  0  0  0  0  0  0  0
    9.4402    0.7971    0.0000 C   0  0  2  0  0  0  0  0  0  0  0  0
    8.8997    6.3766    0.0000 C   0  0  1  0  0  0  0  0  0  0  0  0
   10.3038    4.3353    0.0000 C   0  0  0  0  0  0  0  0  0  0  0  0
    7.6521    1.8387    0.0000 C   0  0  0  0  0  0  0  0  0  0  0  0
    8.5402    0.2728    0.0000 C   0  0  0  0  0  0  0  0  0  0  0  0
   10.3901    0.2728    0.0000 C   0  0  0  0  0  0  0  0  0  0  0  0
   10.6111    5.9205    0.0000 C   0  0  0  0  0  0  0  0  0  0  0  0
    8.0925    6.9668    0.0000 C   0  0  0  0  0  0  0  0  0  0  0  0
    7.6401    0.7971    0.0000 C   0  0  0  0  0  0  0  0  0  0  0  0
   10.3043    1.3004    0.0000 C   0  0  0  0  0  0  0  0  0  0  0  0
    8.5276   -0.8121    0.0000 C   0  0  0  0  0  0  0  0  0  0  0  0
   10.4027   -0.8121    0.0000 C   0  0  0  0  0  0  0  0  0  0  0  0
    9.4651   -1.3582    0.0000 C   0  0  3  0  0  0  0  0  0  0  0  0
    8.2000    7.9611    0.0000 C   0  0  0  0  0  0  0  0  0  0  0  0
    9.1148    8.3651    0.0000 C   0  0  2  0  0  0  0  0  0  0  0  0
    9.9220    7.7749    0.0000 C   0  0  0  0  0  0  0  0  0  0  0  0
    9.2222    9.3593    0.0000 C   0  0  0  0  0  0  0  0  0  0  0  0
    8.5991   -2.8582    0.0000 C   0  0  2  0  0  0  0  0  0  0  0  0
    8.5991   -3.8582    0.0000 C   0  0  1  0  0  0  0  0  0  0  0  0
    7.7331   -4.3582    0.0000 C   0  0  2  0  0  0  0  0  0  0  0  0
    6.8671   -2.8582    0.0000 C   0  0  1  0  0  0  0  0  0  0  0  0
    6.8671   -3.8582    0.0000 C   0  0  3  0  0  0  0  0  0  0  0  0
    6.0010   -2.3582    0.0000 C   0  0  0  0  0  0  0  0  0  0  0  0
   10.4499   -4.1846    0.0000 C   0  0  3  0  0  0  0  0  0  0  0  0
    8.2331   -6.2242    0.0000 C   0  0  2  0  0  0  0  0  0  0  0  0
   10.7920   -3.2449    0.0000 C   0  0  1  0  0  0  0  0  0  0  0  0
    5.1350   -3.8582    0.0000 C   0  0  3  0  0  0  0  0  0  0  0  0
    7.7331   -7.0903    0.0000 C   0  0  1  0  0  0  0  0  0  0  0  0
   11.7768   -3.0712    0.0000 C   0  0  2  0  0  0  0  0  0  0  0  0
   12.0775   -4.7770    0.0000 C   0  0  1  0  0  0  0  0  0  0  0  0
    4.2690   -4.3582    0.0000 C   0  0  2  0  0  0  0  0  0  0  0  0
   12.4196   -3.8373    0.0000 C   0  0  1  0  0  0  0  0  0  0  0  0
    8.2331   -7.9563    0.0000 C   0  0  1  0  0  0  0  0  0  0  0  0
    9.7331   -7.0903    0.0000 C   0  0  2  0  0  0  0  0  0  0  0  0
    3.4030   -3.8582    0.0000 C   0  0  1  0  0  0  0  0  0  0  0  0
    9.2331   -7.9563    0.0000 C   0  0  2  0  0  0  0  0  0  0  0  0
    4.2690   -2.3582    0.0000 C   0  0  1  0  0  0  0  0  0  0  0  0
    3.4030   -2.8582    0.0000 C   0  0  1  0  0  0  0  0  0  0  0  0
   12.7203   -5.5430    0.0000 C   0  0  0  0  0  0  0  0  0  0  0  0
   10.7331   -7.0903    0.0000 C   0  0  0  0  0  0  0  0  0  0  0  0
    4.2690   -1.3582    0.0000 C   0  0  0  0  0  0  0  0  0  0  0  0
    7.7896    3.0003    0.0000 H   0  0  0  0  0  0  0  0  0  0  0  0
   10.0757    4.7217    0.0000 H   0  0  0  0  0  0  0  0  0  0  0  0
    7.8329    2.7755    0.0000 H   0  0  0  0  0  0  0  0  0  0  0  0
    7.6258    4.9861    0.0000 H   0  0  0  0  0  0  0  0  0  0  0  0
   10.1659    1.4165    0.0000 H   0  0  0  0  0  0  0  0  0  0  0  0
    7.2982    4.3248    0.0000 H   0  0  0  0  0  0  0  0  0  0  0  0
    7.4661    3.5125    0.0000 H   0  0  0  0  0  0  0  0  0  0  0  0
   10.9101    3.2253    0.0000 H   0  0  0  0  0  0  0  0  0  0  0  0
   10.5143    3.9171    0.0000 H   0  0  0  0  0  0  0  0  0  0  0  0
   10.0225    5.2317    0.0000 H   0  0  0  0  0  0  0  0  0  0  0  0
   10.5059    1.7519    0.0000 H   0  0  0  0  0  0  0  0  0  0  0  0
   10.9071    2.4406    0.0000 H   0  0  0  0  0  0  0  0  0  0  0  0
   10.6118    3.7972    0.0000 H   0  0  0  0  0  0  0  0  0  0  0  0
   10.8420    4.6432    0.0000 H   0  0  0  0  0  0  0  0  0  0  0  0
    9.9959    4.8734    0.0000 H   0  0  0  0  0  0  0  0  0  0  0  0
    7.4498    2.4247    0.0000 H   0  0  0  0  0  0  0  0  0  0  0  0
    7.0401    1.7396    0.0000 H   0  0  0  0  0  0  0  0  0  0  0  0
   11.0022    0.1738    0.0000 H   0  0  0  0  0  0  0  0  0  0  0  0
   10.5924    0.8589    0.0000 H   0  0  0  0  0  0  0  0  0  0  0  0
   10.7393    5.3139    0.0000 H   0  0  0  0  0  0  0  0  0  0  0  0
   11.2177    6.0487    0.0000 H   0  0  0  0  0  0  0  0  0  0  0  0
   10.4830    6.5272    0.0000 H   0  0  0  0  0  0  0  0  0  0  0  0
    7.4970    7.1395    0.0000 H   0  0  0  0  0  0  0  0  0  0  0  0
    7.8190    6.4104    0.0000 H   0  0  0  0  0  0  0  0  0  0  0  0
    7.1008    0.4912    0.0000 H   0  0  0  0  0  0  0  0  0  0  0  0
   10.6164    0.7647    0.0000 H   0  0  0  0  0  0  0  0  0  0  0  0
   10.8400    1.6125    0.0000 H   0  0  0  0  0  0  0  0  0  0  0  0
    9.9922    1.8362    0.0000 H   0  0  0  0  0  0  0  0  0  0  0  0
    7.9180   -0.6990    0.0000 H   0  0  0  0  0  0  0  0  0  0  0  0
    8.3118   -1.3934    0.0000 H   0  0  0  0  0  0  0  0  0  0  0  0
   10.6185   -1.3934    0.0000 H   0  0  0  0  0  0  0  0  0  0  0  0
   11.0123   -0.6990    0.0000 H   0  0  0  0  0  0  0  0  0  0  0  0
   10.0027   -1.6672    0.0000 H   0  0  0  0  0  0  0  0  0  0  0  0
    8.0518    8.5631    0.0000 H   0  0  0  0  0  0  0  0  0  0  0  0
    7.5814    7.9197    0.0000 H   0  0  0  0  0  0  0  0  0  0  0  0
    8.6142    8.7310    0.0000 H   0  0  0  0  0  0  0  0  0  0  0  0
   10.5175    7.6022    0.0000 H   0  0  0  0  0  0  0  0  0  0  0  0
   10.1955    8.3313    0.0000 H   0  0  0  0  0  0  0  0  0  0  0  0
    9.8387    9.2926    0.0000 H   0  0  0  0  0  0  0  0  0  0  0  0
    9.2889    9.9757    0.0000 H   0  0  0  0  0  0  0  0  0  0  0  0
    8.6058    9.4259    0.0000 H   0  0  0  0  0  0  0  0  0  0  0  0
    8.5991   -2.2382    0.0000 H   0  0  0  0  0  0  0  0  0  0  0  0
    8.5991   -4.4782    0.0000 H   0  0  0  0  0  0  0  0  0  0  0  0
    7.1962   -4.6682    0.0000 H   0  0  0  0  0  0  0  0  0  0  0  0
    6.8671   -2.2382    0.0000 H   0  0  0  0  0  0  0  0  0  0  0  0
    6.3301   -3.5482    0.0000 H   0  0  0  0  0  0  0  0  0  0  0  0
    6.3110   -1.8213    0.0000 H   0  0  0  0  0  0  0  0  0  0  0  0
    5.4641   -2.0482    0.0000 H   0  0  0  0  0  0  0  0  0  0  0  0
    5.6910   -2.8952    0.0000 H   0  0  0  0  0  0  0  0  0  0  0  0
   10.0514   -3.7096    0.0000 H   0  0  0  0  0  0  0  0  0  0  0  0
    8.5431   -5.6873    0.0000 H   0  0  0  0  0  0  0  0  0  0  0  0
   11.0040   -2.6623    0.0000 H   0  0  0  0  0  0  0  0  0  0  0  0
    5.1350   -4.4782    0.0000 H   0  0  0  0  0  0  0  0  0  0  0  0
    7.4231   -6.5534    0.0000 H   0  0  0  0  0  0  0  0  0  0  0  0
   12.3874   -2.9636    0.0000 H   0  0  0  0  0  0  0  0  0  0  0  0
   11.8655   -5.3596    0.0000 H   0  0  0  0  0  0  0  0  0  0  0  0
    3.7320   -4.6682    0.0000 H   0  0  0  0  0  0  0  0  0  0  0  0
   12.6316   -3.2547    0.0000 H   0  0  0  0  0  0  0  0  0  0  0  0
    7.6131   -7.9563    0.0000 H   0  0  0  0  0  0  0  0  0  0  0  0
   10.0431   -6.5533    0.0000 H   0  0  0  0  0  0  0  0  0  0  0  0
    2.8660   -3.5482    0.0000 H   0  0  0  0  0  0  0  0  0  0  0  0
    8.9231   -8.4932    0.0000 H   0  0  0  0  0  0  0  0  0  0  0  0
   10.3612   -1.8962    0.0000 H   0  0  0  0  0  0  0  0  0  0  0  0
    4.8059   -2.0482    0.0000 H   0  0  0  0  0  0  0  0  0  0  0  0
    3.4030   -2.2382    0.0000 H   0  0  0  0  0  0  0  0  0  0  0  0
   13.2573   -5.8530    0.0000 H   0  0  0  0  0  0  0  0  0  0  0  0
   13.1189   -5.0681    0.0000 H   0  0  0  0  0  0  0  0  0  0  0  0
    6.4232   -7.6273    0.0000 H   0  0  0  0  0  0  0  0  0  0  0  0
   12.7294   -2.0239    0.0000 H   0  0  0  0  0  0  0  0  0  0  0  0
    3.7320   -5.6682    0.0000 H   0  0  0  0  0  0  0  0  0  0  0  0
   10.7331   -7.7103    0.0000 H   0  0  0  0  0  0  0  0  0  0  0  0
   11.3531   -7.0903    0.0000 H   0  0  0  0  0  0  0  0  0  0  0  0
   10.7331   -6.4703    0.0000 H   0  0  0  0  0  0  0  0  0  0  0  0
   13.8029   -4.1386    0.0000 H   0  0  0  0  0  0  0  0  0  0  0  0
    8.0431   -9.3593    0.0000 H   0  0  0  0  0  0  0  0  0  0  0  0
    4.8890   -1.3582    0.0000 H   0  0  0  0  0  0  0  0  0  0  0  0
    4.2690   -0.7382    0.0000 H   0  0  0  0  0  0  0  0  0  0  0  0
    3.6490   -1.3582    0.0000 H   0  0  0  0  0  0  0  0  0  0  0  0
    2.0000   -4.0482    0.0000 H   0  0  0  0  0  0  0  0  0  0  0  0
   10.3531   -8.8223    0.0000 H   0  0  0  0  0  0  0  0  0  0  0  0
    2.5369   -1.7382    0.0000 H   0  0  0  0  0  0  0  0  0  0  0  0
   12.7768   -6.9577    0.0000 H   0  0  0  0  0  0  0  0  0  0  0  0
  1 25  1  0  0  0  0
 32  1  1  1  0  0  0
  2 32  1  0  0  0  0
  2 46  1  0  0  0  0
  3 43  1  0  0  0  0
 48  3  1  1  0  0  0
  4 48  1  0  0  0  0
  4 51  1  0  0  0  0
 49  5  1  6  0  0  0
  5 54  1  0  0  0  0
 50  6  1  1  0  0  0
 55  6  1  6  0  0  0
  7 52  1  0  0  0  0
  7 57  1  0  0  0  0
  8 54  1  0  0  0  0
  8 60  1  0  0  0  0
  9 55  1  0  0  0  0
  9 64  1  0  0  0  0
 10 57  1  0  0  0  0
 10 67  1  0  0  0  0
 56 11  1  6  0  0  0
 11134  1  0  0  0  0
 58 12  1  1  0  0  0
 12139  1  0  0  0  0
 59 13  1  1  0  0  0
 13140  1  0  0  0  0
 61 14  1  1  0  0  0
 14141  1  0  0  0  0
 62 15  1  6  0  0  0
 15145  1  0  0  0  0
 63 16  1  1  0  0  0
 16146  1  0  0  0  0
 65 17  1  6  0  0  0
 17150  1  0  0  0  0
 66 18  1  6  0  0  0
 18151  1  0  0  0  0
 68 19  1  6  0  0  0
 19152  1  0  0  0  0
 20 69  1  0  0  0  0
 20153  1  0  0  0  0
 21 22  1  0  0  0  0
 21 23  1  0  0  0  0
 21 28  1  0  0  0  0
 21 33  1  6  0  0  0
 22 24  1  0  0  0  0
 22 27  1  0  0  0  0
 22 72  1  1  0  0  0
 23 25  1  0  0  0  0
 23 29  1  0  0  0  0
 23 73  1  1  0  0  0
 24 26  1  0  0  0  0
 24 34  1  0  0  0  0
 24 74  1  6  0  0  0
 25 27  1  0  0  0  0
 25 75  1  0  0  0  0
 26 30  1  0  0  0  0
 26 31  1  0  0  0  0
 26 76  1  1  0  0  0
 27 77  1  0  0  0  0
 27 78  1  0  0  0  0
 28 30  1  0  0  0  0
 28 79  1  0  0  0  0
 28 80  1  0  0  0  0
 29 32  1  0  0  0  0
 29 37  1  1  0  0  0
 29 81  1  0  0  0  0
 30 82  1  0  0  0  0
 30 83  1  0  0  0  0
 31 35  1  0  0  0  0
 31 36  1  0  0  0  0
 31 40  1  6  0  0  0
 32 38  1  0  0  0  0
 33 84  1  0  0  0  0
 33 85  1  0  0  0  0
 33 86  1  0  0  0  0
 34 39  1  0  0  0  0
 34 87  1  0  0  0  0
 34 88  1  0  0  0  0
 35 39  2  0  0  0  0
 35 41  1  0  0  0  0
 36 42  1  0  0  0  0
 36 89  1  0  0  0  0
 36 90  1  0  0  0  0
 37 91  1  0  0  0  0
 37 92  1  0  0  0  0
 37 93  1  0  0  0  0
 38 44  1  0  0  0  0
 38 94  1  0  0  0  0
 38 95  1  0  0  0  0
 39 96  1  0  0  0  0
 40 97  1  0  0  0  0
 40 98  1  0  0  0  0
 40 99  1  0  0  0  0
 41 43  1  0  0  0  0
 41100  1  0  0  0  0
 41101  1  0  0  0  0
 42 43  1  0  0  0  0
 42102  1  0  0  0  0
 42103  1  0  0  0  0
 43104  1  0  0  0  0
 44 45  1  0  0  0  0
 44105  1  0  0  0  0
 44106  1  0  0  0  0
 45 46  1  0  0  0  0
 45 47  1  1  0  0  0
 45107  1  0  0  0  0
 46108  1  0  0  0  0
 46109  1  0  0  0  0
 47110  1  0  0  0  0
 47111  1  0  0  0  0
 47112  1  0  0  0  0
 48 49  1  0  0  0  0
 48113  1  0  0  0  0
 49 50  1  0  0  0  0
 49114  1  0  0  0  0
 50 52  1  0  0  0  0
 50115  1  0  0  0  0
 51 52  1  0  0  0  0
 51 53  1  1  0  0  0
 51116  1  0  0  0  0
 52117  1  0  0  0  0
 53118  1  0  0  0  0
 53119  1  0  0  0  0
 53120  1  0  0  0  0
 54 56  1  0  0  0  0
 54121  1  0  0  0  0
 55 58  1  0  0  0  0
 55122  1  0  0  0  0
 56 59  1  0  0  0  0
 56123  1  0  0  0  0
 57 61  1  0  0  0  0
 57124  1  0  0  0  0
 58 63  1  0  0  0  0
 58125  1  0  0  0  0
 59 62  1  0  0  0  0
 59126  1  0  0  0  0
 60 62  1  0  0  0  0
 60 69  1  1  0  0  0
 60127  1  0  0  0  0
 61 65  1  0  0  0  0
 61128  1  0  0  0  0
 62129  1  0  0  0  0
 63 66  1  0  0  0  0
 63130  1  0  0  0  0
 64 66  1  0  0  0  0
 64 70  1  1  0  0  0
 64131  1  0  0  0  0
 65 68  1  0  0  0  0
 65132  1  0  0  0  0
 66133  1  0  0  0  0
 67 68  1  0  0  0  0
 67 71  1  1  0  0  0
 67135  1  0  0  0  0
 68136  1  0  0  0  0
 69137  1  0  0  0  0
 69138  1  0  0  0  0
 70142  1  0  0  0  0
 70143  1  0  0  0  0
 70144  1  0  0  0  0
 71147  1  0  0  0  0
 71148  1  0  0  0  0
 71149  1  0  0  0  0
M  END
> <PUBCHEM_COMPOUND_CID>
71664512

> <PUBCHEM_COMPOUND_CANONICALIZED>
1

> <PUBCHEM_CACTVS_COMPLEXITY>
1900

> <PUBCHEM_CACTVS_HBOND_ACCEPTOR>
20

> <PUBCHEM_CACTVS_HBOND_DONOR>
10

> <PUBCHEM_CACTVS_ROTATABLE_BOND>
9

> <PUBCHEM_CACTVS_SUBSKEYS>
AAADcfB8PgAAAAAAAAAAAAAAAAAAAaIAAAA0aJEiQAASAGCAAAAAGgAACAAADxSwgAMCCAAABgCAAiBCAAAAAAAgAAAACAAAAAgREAIAAQAiQAAFwAAPAAPA4PwPgAAAAAAAAADAAAQAACAAAYAADAAAAA==

> <PUBCHEM_IUPAC_OPENEYE_NAME>
(2R,3S,4R,5S)-2-methyl-6-[(2R,4S,5R,6R)-2-methyl-6-[(1S,2S,5'R,6R,7S,8R,9S,12S,13R)-5',7,9,13-tetramethylspiro[5-oxapentacyclo[10.8.0.02,9.04,8.013,18]icos-18-ene-6,2'-tetrahydropyran]-16-yl]oxy-5-[(3R,4S,5S,6R)-3,4,5-trihydroxy-6-(hydroxymethyl)tetrahydropyran-2-yl]oxy-4-[(2S,3R,4R,5R,6S)-3,4,5-trihydroxy-6-methyl-tetrahydropyran-2-yl]oxy-tetrahydropyran-3-yl]oxy-tetrahydropyran-3,4,5-triol

> <PUBCHEM_IUPAC_CAS_NAME>
(2R,3S,4R,5S)-2-methyl-6-[[(2R,4S,5R,6R)-2-methyl-6-[[(1S,2S,5'R,6R,7S,8R,9S,12S,13R)-5',7,9,13-tetramethyl-16-spiro[5-oxapentacyclo[10.8.0.02,9.04,8.013,18]eicos-18-ene-6,2'-oxane]yl]oxy]-5-[[(3R,4S,5S,6R)-3,4,5-trihydroxy-6-(hydroxymethyl)-2-oxanyl]oxy]-4-[[(2S,3R,4R,5R,6S)-3,4,5-trihydroxy-6-methyl-2-oxanyl]oxy]-3-oxanyl]oxy]oxane-3,4,5-triol

> <PUBCHEM_IUPAC_NAME_MARKUP>
(2<I>R</I>,3<I>S</I>,4<I>R</I>,5<I>S</I>)-2-methyl-6-[(2<I>R</I>,4<I>S</I>,5<I>R</I>,6<I>R</I>)-2-methyl-6-[(1<I>S</I>,2<I>S</I>,5&apos;<I>R</I>,6<I>R</I>,7<I>S</I>,8<I>R</I>,9<I>S</I>,12<I>S</I>,13<I>R</I>)-5&apos;,7,9,13-tetramethylspiro[5-oxapentacyclo[10.8.0.0<SUP>2,9</SUP>.0<SUP>4,8</SUP>.0<SUP>13,18</SUP>]icos-18-ene-6,2&apos;-oxane]-16-yl]oxy-5-[(3<I>R</I>,4<I>S</I>,5<I>S</I>,6<I>R</I>)-3,4,5-trihydroxy-6-(hydroxymethyl)oxan-2-yl]oxy-4-[(2<I>S</I>,3<I>R</I>,4<I>R</I>,5<I>R</I>,6<I>S</I>)-3,4,5-trihydroxy-6-methyloxan-2-yl]oxyoxan-3-yl]oxyoxane-3,4,5-triol

> <PUBCHEM_IUPAC_NAME>
(2R,3S,4R,5S)-2-methyl-6-[(2R,4S,5R,6R)-2-methyl-6-[(1S,2S,5'R,6R,7S,8R,9S,12S,13R)-5',7,9,13-tetramethylspiro[5-oxapentacyclo[10.8.0.02,9.04,8.013,18]icos-18-ene-6,2'-oxane]-16-yl]oxy-5-[(3R,4S,5S,6R)-3,4,5-trihydroxy-6-(hydroxymethyl)oxan-2-yl]oxy-4-[(2S,3R,4R,5R,6S)-3,4,5-trihydroxy-6-methyloxan-2-yl]oxyoxan-3-yl]oxyoxane-3,4,5-triol

> <PUBCHEM_IUPAC_SYSTEMATIC_NAME>
(3S,4R,5S,6R)-2-[(2R,4S,5R,6R)-5-[(3R,4S,5S,6R)-6-(hydroxymethyl)-3,4,5-tris(oxidanyl)oxan-2-yl]oxy-2-methyl-4-[(2S,3R,4R,5R,6S)-6-methyl-3,4,5-tris(oxidanyl)oxan-2-yl]oxy-6-[(1S,2S,5'R,6R,7S,8R,9S,12S,13R)-5',7,9,13-tetramethylspiro[5-oxapentacyclo[10.8.0.02,9.04,8.013,18]icos-18-ene-6,2'-oxane]-16-yl]oxy-oxan-3-yl]oxy-6-methyl-oxane-3,4,5-triol

> <PUBCHEM_IUPAC_TRADITIONAL_NAME>
(2R,3S,4R,5S)-2-methyl-6-[(2R,4S,5R,6R)-2-methyl-6-[(1S,2S,5'R,6R,7S,8R,9S,12S,13R)-5',7,9,13-tetramethylspiro[5-oxapentacyclo[10.8.0.02,9.04,8.013,18]eicos-18-ene-6,2'-tetrahydropyran]-16-yl]oxy-5-[(3R,4S,5S,6R)-3,4,5-trihydroxy-6-methylol-tetrahydropyran-2-yl]oxy-4-[(2S,3R,4R,5R,6S)-3,4,5-trihydroxy-6-methyl-tetrahydropyran-2-yl]oxy-tetrahydropyran-3-yl]oxy-tetrahydropyran-3,4,5-triol

> <PUBCHEM_IUPAC_INCHI>
InChI=1S/C51H82O20/c1-20-10-15-51(62-19-20)21(2)32-30(71-51)17-29-27-9-8-25-16-26(11-13-49(25,6)28(27)12-14-50(29,32)7)66-48-44(70-47-41(61)38(58)35(55)31(18-52)67-47)43(69-46-40(60)37(57)34(54)23(4)64-46)42(24(5)65-48)68-45-39(59)36(56)33(53)22(3)63-45/h8,20-24,26-48,52-61H,9-19H2,1-7H3/t20-,21+,22-,23+,24-,26?,27-,28+,29+,30?,31-,32+,33-,34+,35-,36-,37-,38+,39+,40-,41-,42?,43+,44-,45?,46+,47?,48+,49+,50+,51-/m1/s1

> <PUBCHEM_IUPAC_INCHIKEY>
PLDYAXVZGBUCAG-UEMJIXAHSA-N

> <PUBCHEM_XLOGP3_AA>
0.8

> <PUBCHEM_EXACT_MASS>
1014.539945

> <PUBCHEM_MOLECULAR_FORMULA>
C51H82O20

> <PUBCHEM_MOLECULAR_WEIGHT>
1015.2

> <PUBCHEM_OPENEYE_CAN_SMILES>
CC1CCC2(C(C3C(O2)CC4C3(CCC5C4CC=C6C5(CCC(C6)OC7C(C(C(C(O7)C)OC8C(C(C(C(O8)C)O)O)O)OC9C(C(C(C(O9)C)O)O)O)OC2C(C(C(C(O2)CO)O)O)O)C)C)C)OC1

> <PUBCHEM_OPENEYE_ISO_SMILES>
C[C@@H]1CC[C@@]2([C@H]([C@H]3C(O2)C[C@@H]4[C@@]3(CC[C@H]5[C@H]4CC=C6[C@@]5(CCC(C6)O[C@H]7[C@@H]([C@H](C([C@H](O7)C)OC8[C@H]([C@@H]([C@@H]([C@H](O8)C)O)O)O)O[C@H]9[C@@H]([C@@H]([C@H]([C@@H](O9)C)O)O)O)OC2[C@@H]([C@H]([C@@H]([C@H](O2)CO)O)O)O)C)C)C)OC1

> <PUBCHEM_CACTVS_TPSA>
295

> <PUBCHEM_MONOISOTOPIC_WEIGHT>
1014.539945

> <PUBCHEM_TOTAL_CHARGE>
0

> <PUBCHEM_HEAVY_ATOM_COUNT>
71

> <PUBCHEM_ATOM_DEF_STEREO_COUNT>
26

> <PUBCHEM_ATOM_UDEF_STEREO_COUNT>
5

> <PUBCHEM_BOND_DEF_STEREO_COUNT>
0

> <PUBCHEM_BOND_UDEF_STEREO_COUNT>
0

> <PUBCHEM_ISOTOPIC_ATOM_COUNT>
0

> <PUBCHEM_COMPONENT_COUNT>
1

> <PUBCHEM_CACTVS_TAUTO_COUNT>
-1

> <PUBCHEM_COORDINATE_TYPE>
1
5
255

> <PUBCHEM_BONDANNOTATIONS>
32  1  5
56  11  6
58  12  5
59  13  5
61  14  5
62  15  6
63  16  5
65  17  6
66  18  6
68  19  6
21  33  6
22  72  5
23  73  5
24  74  6
25  27  3
26  76  5
29  37  5
43  3  3
48  3  5
31  40  6
45  47  5
49  5  6
54  5  3
51  53  5
50  6  5
55  6  6
60  69  5
64  70  5
67  71  5
52  7  3
57  7  3

$$$$
