101615586
  -OEChem-09152005322D

131139  0     1  0  0  0  0  0999 V2000
   10.6948    4.0403    0.0000 O   0  0  0  0  0  0  0  0  0  0  0  0
    8.5123    2.8582    0.0000 O   0  0  0  0  0  0  0  0  0  0  0  0
    8.9224    4.9351    0.0000 O   0  0  0  0  0  0  0  0  0  0  0  0
    9.2718   -4.2038    0.0000 O   0  0  0  0  0  0  0  0  0  0  0  0
    7.5397   -4.2038    0.0000 O   0  0  0  0  0  0  0  0  0  0  0  0
    9.2718   -6.2038    0.0000 O   0  0  0  0  0  0  0  0  0  0  0  0
    7.5397   -7.2038    0.0000 O   0  0  0  0  0  0  0  0  0  0  0  0
    5.8076   -6.2038    0.0000 O   0  0  0  0  0  0  0  0  0  0  0  0
   10.1378   -4.7038    0.0000 O   0  0  0  0  0  0  0  0  0  0  0  0
    5.8076   -3.2038    0.0000 O   0  0  0  0  0  0  0  0  0  0  0  0
    4.8371   -4.7092    0.0000 O   0  0  0  0  0  0  0  0  0  0  0  0
   11.0038   -7.2038    0.0000 O   0  0  0  0  0  0  0  0  0  0  0  0
   12.7359   -6.2038    0.0000 O   0  0  0  0  0  0  0  0  0  0  0  0
    3.8202   -7.0886    0.0000 O   0  0  0  0  0  0  0  0  0  0  0  0
   12.7359   -4.2038    0.0000 O   0  0  0  0  0  0  0  0  0  0  0  0
    2.3644   -5.4719    0.0000 O   0  0  0  0  0  0  0  0  0  0  0  0
    4.0400   -2.7788    0.0000 O   0  0  0  0  0  0  0  0  0  0  0  0
    9.3010    1.9931    0.0000 C   0  0  1  0  0  0  0  0  0  0  0  0
   10.1690    1.4965    0.0000 C   0  0  2  0  0  0  0  0  0  0  0  0
    9.5065    2.9657    0.0000 C   0  0  1  0  0  0  0  0  0  0  0  0
   10.1728    0.4965    0.0000 C   0  0  1  0  0  0  0  0  0  0  0  0
   10.4948    3.0726    0.0000 C   0  0  2  0  0  0  0  0  0  0  0  0
   10.9034    2.1664    0.0000 C   0  0  0  0  0  0  0  0  0  0  0  0
    9.3087   -0.0069    0.0000 C   0  0  2  0  0  0  0  0  0  0  0  0
    8.4369    1.4898    0.0000 C   0  0  0  0  0  0  0  0  0  0  0  0
    9.1042    3.8683    0.0000 C   0  0  1  0  0  0  0  0  0  0  0  0
    8.4408    0.4898    0.0000 C   0  0  0  0  0  0  0  0  0  0  0  0
    9.2967   -1.0484    0.0000 C   0  0  2  0  0  0  0  0  0  0  0  0
    9.8371    4.5311    0.0000 C   0  0  1  0  0  0  0  0  0  0  0  0
    8.3155    2.1630    0.0000 C   0  0  0  0  0  0  0  0  0  0  0  0
   11.0848   -0.0069    0.0000 C   0  0  0  0  0  0  0  0  0  0  0  0
   10.1967   -1.5727    0.0000 C   0  0  0  0  0  0  0  0  0  0  0  0
    8.3468   -1.5727    0.0000 C   0  0  0  0  0  0  0  0  0  0  0  0
    8.1258    4.0750    0.0000 C   0  0  0  0  0  0  0  0  0  0  0  0
   10.6444    5.1213    0.0000 C   0  0  0  0  0  0  0  0  0  0  0  0
   11.0968   -1.0484    0.0000 C   0  0  0  0  0  0  0  0  0  0  0  0
    8.4326   -0.5451    0.0000 C   0  0  0  0  0  0  0  0  0  0  0  0
   10.2093   -2.6576    0.0000 C   0  0  0  0  0  0  0  0  0  0  0  0
    8.3342   -2.6576    0.0000 C   0  0  0  0  0  0  0  0  0  0  0  0
   10.5369    6.1155    0.0000 C   0  0  0  0  0  0  0  0  0  0  0  0
    9.2718   -3.2038    0.0000 C   0  0  2  0  0  0  0  0  0  0  0  0
    8.8149    5.9293    0.0000 C   0  0  0  0  0  0  0  0  0  0  0  0
    9.6221    6.5195    0.0000 C   0  0  2  0  0  0  0  0  0  0  0  0
    9.5146    7.5138    0.0000 C   0  0  0  0  0  0  0  0  0  0  0  0
    8.4057   -4.7038    0.0000 C   0  0  2  0  0  0  0  0  0  0  0  0
    8.4057   -5.7038    0.0000 C   0  0  1  0  0  0  0  0  0  0  0  0
    7.5397   -6.2038    0.0000 C   0  0  2  0  0  0  0  0  0  0  0  0
    6.6737   -4.7038    0.0000 C   0  0  1  0  0  0  0  0  0  0  0  0
    6.6737   -5.7038    0.0000 C   0  0  1  0  0  0  0  0  0  0  0  0
    5.8076   -4.2038    0.0000 C   0  0  0  0  0  0  0  0  0  0  0  0
   10.1378   -5.7038    0.0000 C   0  0  2  0  0  0  0  0  0  0  0  0
   11.0038   -6.2038    0.0000 C   0  0  1  0  0  0  0  0  0  0  0  0
    4.9416   -5.7038    0.0000 C   0  0  2  0  0  0  0  0  0  0  0  0
   11.8698   -5.7038    0.0000 C   0  0  1  0  0  0  0  0  0  0  0  0
    4.0281   -6.1105    0.0000 C   0  0  1  0  0  0  0  0  0  0  0  0
   11.0038   -4.2038    0.0000 C   0  0  2  0  0  0  0  0  0  0  0  0
   11.8698   -4.7038    0.0000 C   0  0  2  0  0  0  0  0  0  0  0  0
    3.3590   -5.3673    0.0000 C   0  0  2  0  0  0  0  0  0  0  0  0
    3.8590   -4.5013    0.0000 C   0  0  2  0  0  0  0  0  0  0  0  0
   11.0038   -3.2038    0.0000 C   0  0  0  0  0  0  0  0  0  0  0  0
    3.4522   -3.5878    0.0000 C   0  0  0  0  0  0  0  0  0  0  0  0
   10.9472    1.1548    0.0000 H   0  0  0  0  0  0  0  0  0  0  0  0
   10.9040    0.9300    0.0000 H   0  0  0  0  0  0  0  0  0  0  0  0
   11.3397    3.1658    0.0000 H   0  0  0  0  0  0  0  0  0  0  0  0
   11.2708    1.6670    0.0000 H   0  0  0  0  0  0  0  0  0  0  0  0
   11.4387    2.4792    0.0000 H   0  0  0  0  0  0  0  0  0  0  0  0
   10.0432   -0.4347    0.0000 H   0  0  0  0  0  0  0  0  0  0  0  0
    8.2226    2.0716    0.0000 H   0  0  0  0  0  0  0  0  0  0  0  0
    7.8268    1.3798    0.0000 H   0  0  0  0  0  0  0  0  0  0  0  0
    8.7144    3.3862    0.0000 H   0  0  0  0  0  0  0  0  0  0  0  0
    7.8298    0.5951    0.0000 H   0  0  0  0  0  0  0  0  0  0  0  0
    8.2310   -0.0936    0.0000 H   0  0  0  0  0  0  0  0  0  0  0  0
    8.4208    2.7740    0.0000 H   0  0  0  0  0  0  0  0  0  0  0  0
    7.7046    2.2683    0.0000 H   0  0  0  0  0  0  0  0  0  0  0  0
    8.2102    1.5520    0.0000 H   0  0  0  0  0  0  0  0  0  0  0  0
   11.6968   -0.1059    0.0000 H   0  0  0  0  0  0  0  0  0  0  0  0
   11.2871    0.5792    0.0000 H   0  0  0  0  0  0  0  0  0  0  0  0
    8.1463    3.3587    0.0000 H   0  0  0  0  0  0  0  0  0  0  0  0
    8.1445   -0.9866    0.0000 H   0  0  0  0  0  0  0  0  0  0  0  0
    7.7347   -1.6717    0.0000 H   0  0  0  0  0  0  0  0  0  0  0  0
    8.2539    4.6816    0.0000 H   0  0  0  0  0  0  0  0  0  0  0  0
    7.5192    4.2032    0.0000 H   0  0  0  0  0  0  0  0  0  0  0  0
    7.9976    3.4684    0.0000 H   0  0  0  0  0  0  0  0  0  0  0  0
   10.9179    4.5649    0.0000 H   0  0  0  0  0  0  0  0  0  0  0  0
   11.2399    5.2940    0.0000 H   0  0  0  0  0  0  0  0  0  0  0  0
   11.6361   -1.3543    0.0000 H   0  0  0  0  0  0  0  0  0  0  0  0
    8.7446   -0.0093    0.0000 H   0  0  0  0  0  0  0  0  0  0  0  0
    7.8968   -0.2330    0.0000 H   0  0  0  0  0  0  0  0  0  0  0  0
    8.1205   -1.0808    0.0000 H   0  0  0  0  0  0  0  0  0  0  0  0
   10.4251   -3.2389    0.0000 H   0  0  0  0  0  0  0  0  0  0  0  0
   10.8189   -2.5445    0.0000 H   0  0  0  0  0  0  0  0  0  0  0  0
    7.7246   -2.5445    0.0000 H   0  0  0  0  0  0  0  0  0  0  0  0
    8.1184   -3.2389    0.0000 H   0  0  0  0  0  0  0  0  0  0  0  0
   11.1555    6.0741    0.0000 H   0  0  0  0  0  0  0  0  0  0  0  0
   10.6851    6.7176    0.0000 H   0  0  0  0  0  0  0  0  0  0  0  0
    9.8093   -3.5127    0.0000 H   0  0  0  0  0  0  0  0  0  0  0  0
    8.5414    6.4858    0.0000 H   0  0  0  0  0  0  0  0  0  0  0  0
    8.2194    5.7567    0.0000 H   0  0  0  0  0  0  0  0  0  0  0  0
   10.1226    6.8855    0.0000 H   0  0  0  0  0  0  0  0  0  0  0  0
   10.1310    7.5804    0.0000 H   0  0  0  0  0  0  0  0  0  0  0  0
    9.4480    8.1302    0.0000 H   0  0  0  0  0  0  0  0  0  0  0  0
    8.8982    7.4471    0.0000 H   0  0  0  0  0  0  0  0  0  0  0  0
    8.4057   -4.0838    0.0000 H   0  0  0  0  0  0  0  0  0  0  0  0
    8.4057   -6.3238    0.0000 H   0  0  0  0  0  0  0  0  0  0  0  0
    7.0028   -6.5138    0.0000 H   0  0  0  0  0  0  0  0  0  0  0  0
    6.6737   -4.0838    0.0000 H   0  0  0  0  0  0  0  0  0  0  0  0
    6.6737   -6.3238    0.0000 H   0  0  0  0  0  0  0  0  0  0  0  0
    5.1971   -4.0961    0.0000 H   0  0  0  0  0  0  0  0  0  0  0  0
    5.5956   -4.7864    0.0000 H   0  0  0  0  0  0  0  0  0  0  0  0
    9.6008   -5.3938    0.0000 H   0  0  0  0  0  0  0  0  0  0  0  0
    7.0028   -7.5138    0.0000 H   0  0  0  0  0  0  0  0  0  0  0  0
   10.4669   -6.5138    0.0000 H   0  0  0  0  0  0  0  0  0  0  0  0
    4.9092   -6.3229    0.0000 H   0  0  0  0  0  0  0  0  0  0  0  0
    5.2707   -2.8938    0.0000 H   0  0  0  0  0  0  0  0  0  0  0  0
   11.8698   -6.3238    0.0000 H   0  0  0  0  0  0  0  0  0  0  0  0
    4.5099   -6.5007    0.0000 H   0  0  0  0  0  0  0  0  0  0  0  0
   10.4669   -3.8938    0.0000 H   0  0  0  0  0  0  0  0  0  0  0  0
   12.4068   -5.0138    0.0000 H   0  0  0  0  0  0  0  0  0  0  0  0
    3.1368   -5.9462    0.0000 H   0  0  0  0  0  0  0  0  0  0  0  0
    4.2491   -4.0195    0.0000 H   0  0  0  0  0  0  0  0  0  0  0  0
   11.5407   -7.5138    0.0000 H   0  0  0  0  0  0  0  0  0  0  0  0
   11.6238   -3.2038    0.0000 H   0  0  0  0  0  0  0  0  0  0  0  0
   11.0038   -2.5838    0.0000 H   0  0  0  0  0  0  0  0  0  0  0  0
   10.3838   -3.2038    0.0000 H   0  0  0  0  0  0  0  0  0  0  0  0
   13.2728   -5.8938    0.0000 H   0  0  0  0  0  0  0  0  0  0  0  0
    4.2809   -7.5035    0.0000 H   0  0  0  0  0  0  0  0  0  0  0  0
    3.0215   -3.1418    0.0000 H   0  0  0  0  0  0  0  0  0  0  0  0
    2.9382   -3.9345    0.0000 H   0  0  0  0  0  0  0  0  0  0  0  0
   13.2728   -4.5138    0.0000 H   0  0  0  0  0  0  0  0  0  0  0  0
    2.0000   -4.9703    0.0000 H   0  0  0  0  0  0  0  0  0  0  0  0
    3.7878   -2.2123    0.0000 H   0  0  0  0  0  0  0  0  0  0  0  0
  1 22  1  0  0  0  0
 29  1  1  6  0  0  0
 20  2  1  6  0  0  0
  2 78  1  0  0  0  0
  3 29  1  0  0  0  0
  3 42  1  0  0  0  0
 41  4  1  1  0  0  0
 45  4  1  1  0  0  0
  5 45  1  0  0  0  0
  5 48  1  0  0  0  0
 46  6  1  6  0  0  0
 51  6  1  6  0  0  0
 47  7  1  1  0  0  0
  7111  1  0  0  0  0
 49  8  1  6  0  0  0
 53  8  1  1  0  0  0
  9 51  1  0  0  0  0
  9 56  1  0  0  0  0
 10 50  1  0  0  0  0
 10114  1  0  0  0  0
 11 53  1  0  0  0  0
 11 59  1  0  0  0  0
 52 12  1  1  0  0  0
 12121  1  0  0  0  0
 54 13  1  1  0  0  0
 13125  1  0  0  0  0
 55 14  1  6  0  0  0
 14126  1  0  0  0  0
 57 15  1  6  0  0  0
 15129  1  0  0  0  0
 58 16  1  1  0  0  0
 16130  1  0  0  0  0
 17 61  1  0  0  0  0
 17131  1  0  0  0  0
 18 19  1  0  0  0  0
 18 20  1  0  0  0  0
 18 25  1  0  0  0  0
 18 30  1  1  0  0  0
 19 21  1  0  0  0  0
 19 23  1  0  0  0  0
 19 62  1  6  0  0  0
 20 22  1  0  0  0  0
 20 26  1  0  0  0  0
 21 24  1  0  0  0  0
 21 31  1  0  0  0  0
 21 63  1  1  0  0  0
 22 23  1  0  0  0  0
 22 64  1  6  0  0  0
 23 65  1  0  0  0  0
 23 66  1  0  0  0  0
 24 27  1  0  0  0  0
 24 28  1  0  0  0  0
 24 67  1  6  0  0  0
 25 27  1  0  0  0  0
 25 68  1  0  0  0  0
 25 69  1  0  0  0  0
 26 29  1  0  0  0  0
 26 34  1  6  0  0  0
 26 70  1  0  0  0  0
 27 71  1  0  0  0  0
 27 72  1  0  0  0  0
 28 32  1  0  0  0  0
 28 33  1  0  0  0  0
 28 37  1  1  0  0  0
 29 35  1  0  0  0  0
 30 73  1  0  0  0  0
 30 74  1  0  0  0  0
 30 75  1  0  0  0  0
 31 36  1  0  0  0  0
 31 76  1  0  0  0  0
 31 77  1  0  0  0  0
 32 36  2  0  0  0  0
 32 38  1  0  0  0  0
 33 39  1  0  0  0  0
 33 79  1  0  0  0  0
 33 80  1  0  0  0  0
 34 81  1  0  0  0  0
 34 82  1  0  0  0  0
 34 83  1  0  0  0  0
 35 40  1  0  0  0  0
 35 84  1  0  0  0  0
 35 85  1  0  0  0  0
 36 86  1  0  0  0  0
 37 87  1  0  0  0  0
 37 88  1  0  0  0  0
 37 89  1  0  0  0  0
 38 41  1  0  0  0  0
 38 90  1  0  0  0  0
 38 91  1  0  0  0  0
 39 41  1  0  0  0  0
 39 92  1  0  0  0  0
 39 93  1  0  0  0  0
 40 43  1  0  0  0  0
 40 94  1  0  0  0  0
 40 95  1  0  0  0  0
 41 96  1  0  0  0  0
 42 43  1  0  0  0  0
 42 97  1  0  0  0  0
 42 98  1  0  0  0  0
 43 44  1  6  0  0  0
 43 99  1  0  0  0  0
 44100  1  0  0  0  0
 44101  1  0  0  0  0
 44102  1  0  0  0  0
 45 46  1  0  0  0  0
 45103  1  0  0  0  0
 46 47  1  0  0  0  0
 46104  1  0  0  0  0
 47 49  1  0  0  0  0
 47105  1  0  0  0  0
 48 49  1  0  0  0  0
 48 50  1  1  0  0  0
 48106  1  0  0  0  0
 49107  1  0  0  0  0
 50108  1  0  0  0  0
 50109  1  0  0  0  0
 51 52  1  0  0  0  0
 51110  1  0  0  0  0
 52 54  1  0  0  0  0
 52112  1  0  0  0  0
 53 55  1  0  0  0  0
 53113  1  0  0  0  0
 54 57  1  0  0  0  0
 54115  1  0  0  0  0
 55 58  1  0  0  0  0
 55116  1  0  0  0  0
 56 57  1  0  0  0  0
 56 60  1  1  0  0  0
 56117  1  0  0  0  0
 57118  1  0  0  0  0
 58 59  1  0  0  0  0
 58119  1  0  0  0  0
 59 61  1  6  0  0  0
 59120  1  0  0  0  0
 60122  1  0  0  0  0
 60123  1  0  0  0  0
 60124  1  0  0  0  0
 61127  1  0  0  0  0
 61128  1  0  0  0  0
M  END
> <PUBCHEM_COMPOUND_CID>
101615586

> <PUBCHEM_COMPOUND_CANONICALIZED>
1

> <PUBCHEM_CACTVS_COMPLEXITY>
1620

> <PUBCHEM_CACTVS_HBOND_ACCEPTOR>
17

> <PUBCHEM_CACTVS_HBOND_DONOR>
9

> <PUBCHEM_CACTVS_ROTATABLE_BOND>
8

> <PUBCHEM_CACTVS_SUBSKEYS>
AAADcfB8PgAAAAAAAAAAAAAAAAAAAaJEAAA0aJECAAASAGCAAAAAGgAACAAAD1SwgAMCCAAABgCAAiBCAAAAAAAgAAAACAAAAAgREAIAAQAiQAAFwAAPAAPA4PwPgAAAAAAAAADAAAQAACAAAYAADCAAAA==

> <PUBCHEM_IUPAC_OPENEYE_NAME>
(2S,3R,4R,5R,6S)-2-[(2R,3R,4S,5S,6R)-5-[(2S,3R,4R,5S)-3,4-dihydroxy-5-(hydroxymethyl)tetrahydrofuran-2-yl]oxy-4-hydroxy-6-(hydroxymethyl)-2-[(1R,2S,4S,5'R,6R,7S,8S,9S,12S,13R,16S)-8-hydroxy-5',7,9,13-tetramethyl-spiro[5-oxapentacyclo[10.8.0.02,9.04,8.013,18]icos-18-ene-6,2'-tetrahydropyran]-16-yl]oxy-tetrahydropyran-3-yl]oxy-6-methyl-tetrahydropyran-3,4,5-triol

> <PUBCHEM_IUPAC_CAS_NAME>
(2S,3R,4R,5R,6S)-2-[[(2R,3R,4S,5S,6R)-5-[[(2S,3R,4R,5S)-3,4-dihydroxy-5-(hydroxymethyl)-2-oxolanyl]oxy]-4-hydroxy-6-(hydroxymethyl)-2-[[(1R,2S,4S,5'R,6R,7S,8S,9S,12S,13R,16S)-8-hydroxy-5',7,9,13-tetramethyl-16-spiro[5-oxapentacyclo[10.8.0.02,9.04,8.013,18]eicos-18-ene-6,2'-oxane]yl]oxy]-3-oxanyl]oxy]-6-methyloxane-3,4,5-triol

> <PUBCHEM_IUPAC_NAME_MARKUP>
(2<I>S</I>,3<I>R</I>,4<I>R</I>,5<I>R</I>,6<I>S</I>)-2-[(2<I>R</I>,3<I>R</I>,4<I>S</I>,5<I>S</I>,6<I>R</I>)-5-[(2<I>S</I>,3<I>R</I>,4<I>R</I>,5<I>S</I>)-3,4-dihydroxy-5-(hydroxymethyl)oxolan-2-yl]oxy-4-hydroxy-6-(hydroxymethyl)-2-[(1<I>R</I>,2<I>S</I>,4<I>S</I>,5&apos;<I>R</I>,6<I>R</I>,7<I>S</I>,8<I>S</I>,9<I>S</I>,12<I>S</I>,13<I>R</I>,16<I>S</I>)-8-hydroxy-5&apos;,7,9,13-tetramethylspiro[5-oxapentacyclo[10.8.0.0<SUP>2,9</SUP>.0<SUP>4,8</SUP>.0<SUP>13,18</SUP>]icos-18-ene-6,2&apos;-oxane]-16-yl]oxyoxan-3-yl]oxy-6-methyloxane-3,4,5-triol

> <PUBCHEM_IUPAC_NAME>
(2S,3R,4R,5R,6S)-2-[(2R,3R,4S,5S,6R)-5-[(2S,3R,4R,5S)-3,4-dihydroxy-5-(hydroxymethyl)oxolan-2-yl]oxy-4-hydroxy-6-(hydroxymethyl)-2-[(1R,2S,4S,5'R,6R,7S,8S,9S,12S,13R,16S)-8-hydroxy-5',7,9,13-tetramethylspiro[5-oxapentacyclo[10.8.0.02,9.04,8.013,18]icos-18-ene-6,2'-oxane]-16-yl]oxyoxan-3-yl]oxy-6-methyloxane-3,4,5-triol

> <PUBCHEM_IUPAC_SYSTEMATIC_NAME>
(2S,3R,4R,5R,6S)-2-[(2R,3R,4S,5S,6R)-6-(hydroxymethyl)-5-[(2S,3R,4R,5S)-5-(hydroxymethyl)-3,4-bis(oxidanyl)oxolan-2-yl]oxy-4-oxidanyl-2-[(1R,2S,4S,5'R,6R,7S,8S,9S,12S,13R,16S)-5',7,9,13-tetramethyl-8-oxidanyl-spiro[5-oxapentacyclo[10.8.0.02,9.04,8.013,18]icos-18-ene-6,2'-oxane]-16-yl]oxy-oxan-3-yl]oxy-6-methyl-oxane-3,4,5-triol

> <PUBCHEM_IUPAC_TRADITIONAL_NAME>
(2S,3R,4R,5R,6S)-2-[(2R,3R,4S,5S,6R)-5-[(2S,3R,4R,5S)-3,4-dihydroxy-5-methylol-tetrahydrofuran-2-yl]oxy-4-hydroxy-2-[(1R,2S,4S,5'R,6R,7S,8S,9S,12S,13R,16S)-8-hydroxy-5',7,9,13-tetramethyl-spiro[5-oxapentacyclo[10.8.0.02,9.04,8.013,18]eicos-18-ene-6,2'-tetrahydropyran]-16-yl]oxy-6-methylol-tetrahydropyran-3-yl]oxy-6-methyl-tetrahydropyran-3,4,5-triol

> <PUBCHEM_IUPAC_INCHI>
InChI=1S/C44H70O17/c1-19-8-13-43(54-18-19)21(3)44(53)29(61-43)15-26-24-7-6-22-14-23(9-11-41(22,4)25(24)10-12-42(26,44)5)56-40-37(60-38-34(51)32(49)30(47)20(2)55-38)35(52)36(28(17-46)58-40)59-39-33(50)31(48)27(16-45)57-39/h6,19-21,23-40,45-53H,7-18H2,1-5H3/t19-,20+,21-,23+,24-,25+,26+,27+,28-,29+,30+,31+,32-,33-,34-,35+,36-,37-,38+,39+,40-,41+,42+,43-,44-/m1/s1

> <PUBCHEM_IUPAC_INCHIKEY>
DEUSODBYLVUUQI-CRUCUECZSA-N

> <PUBCHEM_XLOGP3_AA>
0.2

> <PUBCHEM_EXACT_MASS>
870.461301

> <PUBCHEM_MOLECULAR_FORMULA>
C44H70O17

> <PUBCHEM_MOLECULAR_WEIGHT>
871

> <PUBCHEM_OPENEYE_CAN_SMILES>
CC1CCC2(C(C3(C(O2)CC4C3(CCC5C4CC=C6C5(CCC(C6)OC7C(C(C(C(O7)CO)OC8C(C(C(O8)CO)O)O)O)OC9C(C(C(C(O9)C)O)O)O)C)C)O)C)OC1

> <PUBCHEM_OPENEYE_ISO_SMILES>
C[C@@H]1CC[C@@]2([C@H]([C@]3([C@@H](O2)C[C@@H]4[C@@]3(CC[C@H]5[C@H]4CC=C6[C@@]5(CC[C@@H](C6)O[C@H]7[C@@H]([C@H]([C@@H]([C@H](O7)CO)O[C@H]8[C@@H]([C@H]([C@@H](O8)CO)O)O)O)O[C@H]9[C@@H]([C@@H]([C@H]([C@@H](O9)C)O)O)O)C)C)O)C)OC1

> <PUBCHEM_CACTVS_TPSA>
256

> <PUBCHEM_MONOISOTOPIC_WEIGHT>
870.461301

> <PUBCHEM_TOTAL_CHARGE>
0

> <PUBCHEM_HEAVY_ATOM_COUNT>
61

> <PUBCHEM_ATOM_DEF_STEREO_COUNT>
25

> <PUBCHEM_ATOM_UDEF_STEREO_COUNT>
0

> <PUBCHEM_BOND_DEF_STEREO_COUNT>
0

> <PUBCHEM_BOND_UDEF_STEREO_COUNT>
0

> <PUBCHEM_ISOTOPIC_ATOM_COUNT>
0

> <PUBCHEM_COMPONENT_COUNT>
1

> <PUBCHEM_CACTVS_TAUTO_COUNT>
-1

> <PUBCHEM_COORDINATE_TYPE>
1
5
255

> <PUBCHEM_BONDANNOTATIONS>
29  1  6
52  12  5
54  13  5
55  14  6
57  15  6
58  16  5
18  30  5
19  62  6
20  2  6
21  63  5
22  64  6
24  67  6
26  34  6
28  37  5
41  4  5
45  4  5
43  44  6
48  50  5
56  60  5
59  61  6
46  6  6
51  6  6
47  7  5
49  8  6
53  8  5

$$$$
