44593371
  -OEChem-09052007522D

159168  0     1  0  0  0  0  0999 V2000
   12.9046    3.3617    0.0000 O   0  0  0  0  0  0  0  0  0  0  0  0
   15.0324    2.2535    0.0000 O   0  0  0  0  0  0  0  0  0  0  0  0
    6.8671    0.6180    0.0000 O   0  0  0  0  0  0  0  0  0  0  0  0
    7.7331   -0.8820    0.0000 O   0  0  0  0  0  0  0  0  0  0  0  0
    5.1350   -0.3820    0.0000 O   0  0  0  0  0  0  0  0  0  0  0  0
    5.1350   -2.3820    0.0000 O   0  0  0  0  0  0  0  0  0  0  0  0
    6.8671   -3.3820    0.0000 O   0  0  0  0  0  0  0  0  0  0  0  0
    6.0010    1.1180    0.0000 O   0  0  0  0  0  0  0  0  0  0  0  0
    3.4030    0.6180    0.0000 O   0  0  0  0  0  0  0  0  0  0  0  0
    5.1350   -3.3820    0.0000 O   0  0  0  0  0  0  0  0  0  0  0  0
    3.4030    2.6180    0.0000 O   0  0  0  0  0  0  0  0  0  0  0  0
    6.8671   -5.3820    0.0000 O   0  0  0  0  0  0  0  0  0  0  0  0
    5.1350    3.6180    0.0000 O   0  0  0  0  0  0  0  0  0  0  0  0
    5.1350   -6.3820    0.0000 O   0  0  0  0  0  0  0  0  0  0  0  0
    6.8671    3.6180    0.0000 O   0  0  0  0  0  0  0  0  0  0  0  0
    3.4030   -5.3820    0.0000 O   0  0  0  0  0  0  0  0  0  0  0  0
    2.5369   -3.8820    0.0000 O   0  0  0  0  0  0  0  0  0  0  0  0
    7.7331   -3.8820    0.0000 O   0  0  0  0  0  0  0  0  0  0  0  0
    8.5991   -6.3820    0.0000 O   0  0  0  0  0  0  0  0  0  0  0  0
   10.3312   -5.3820    0.0000 O   0  0  0  0  0  0  0  0  0  0  0  0
   10.3312   -3.3820    0.0000 O   0  0  0  0  0  0  0  0  0  0  0  0
   12.4363    2.7635    0.0000 C   0  0  2  0  0  0  0  0  0  0  0  0
   12.4401    3.7635    0.0000 C   0  0  2  0  0  0  0  0  0  0  0  0
   11.5403    2.2323    0.0000 C   0  0  1  0  0  0  0  0  0  0  0  0
   13.3081    4.2602    0.0000 C   0  0  1  0  0  0  0  0  0  0  0  0
   14.1722    3.7568    0.0000 C   0  0  2  0  0  0  0  0  0  0  0  0
   10.6362    2.7496    0.0000 C   0  0  1  0  0  0  0  0  0  0  0  0
    9.6903    2.2180    0.0000 C   0  0  2  0  0  0  0  0  0  0  0  0
   13.3004    2.2602    0.0000 C   0  0  0  0  0  0  0  0  0  0  0  0
   11.5482    4.3016    0.0000 C   0  0  0  0  0  0  0  0  0  0  0  0
   14.1683    2.7568    0.0000 C   0  0  1  0  0  0  0  0  0  0  0  0
   10.6402    3.7912    0.0000 C   0  0  0  0  0  0  0  0  0  0  0  0
    9.6862    1.1330    0.0000 C   0  0  1  0  0  0  0  0  0  0  0  0
   11.5612    1.1475    0.0000 C   0  0  0  0  0  0  0  0  0  0  0  0
   13.7046    3.3586    0.0000 C   0  0  0  0  0  0  0  0  0  0  0  0
   13.2960    5.3017    0.0000 C   0  0  0  0  0  0  0  0  0  0  0  0
   15.0841    4.2602    0.0000 C   0  0  0  0  0  0  0  0  0  0  0  0
   10.6279    0.5942    0.0000 C   0  0  0  0  0  0  0  0  0  0  0  0
   12.7748    1.8225    0.0000 C   0  0  0  0  0  0  0  0  0  0  0  0
   12.1860    1.4687    0.0000 C   0  0  0  0  0  0  0  0  0  0  0  0
   14.1961    5.8260    0.0000 C   0  0  0  0  0  0  0  0  0  0  0  0
    8.7140    0.5567    0.0000 C   0  0  0  0  0  0  0  0  0  0  0  0
    8.7227    2.8019    0.0000 C   0  0  0  0  0  0  0  0  0  0  0  0
   15.0961    5.3017    0.0000 C   0  0  0  0  0  0  0  0  0  0  0  0
    9.6942    3.2180    0.0000 C   0  0  0  0  0  0  0  0  0  0  0  0
    7.7331    1.1180    0.0000 C   0  0  2  0  0  0  0  0  0  0  0  0
    7.7374    2.2481    0.0000 C   0  0  0  0  0  0  0  0  0  0  0  0
   14.6961    6.6920    0.0000 C   0  0  0  0  0  0  0  0  0  0  0  0
   13.6961    6.6920    0.0000 C   0  0  0  0  0  0  0  0  0  0  0  0
    9.2207   -0.3055    0.0000 C   0  0  0  0  0  0  0  0  0  0  0  0
    8.2207   -0.3132    0.0000 C   0  0  0  0  0  0  0  0  0  0  0  0
    6.8671   -0.3820    0.0000 C   0  0  2  0  0  0  0  0  0  0  0  0
    6.0010   -0.8820    0.0000 C   0  0  1  0  0  0  0  0  0  0  0  0
    6.0010   -1.8820    0.0000 C   0  0  2  0  0  0  0  0  0  0  0  0
    7.7331   -1.8820    0.0000 C   0  0  0  0  0  0  0  0  0  0  0  0
    6.8671   -2.3820    0.0000 C   0  0  2  0  0  0  0  0  0  0  0  0
    5.1350    0.6180    0.0000 C   0  0  2  0  0  0  0  0  0  0  0  0
    4.2690    1.1180    0.0000 C   0  0  1  0  0  0  0  0  0  0  0  0
    6.0010   -3.8820    0.0000 C   0  0  2  0  0  0  0  0  0  0  0  0
    4.2690    2.1180    0.0000 C   0  0  2  0  0  0  0  0  0  0  0  0
    6.0010    2.1180    0.0000 C   0  0  1  0  0  0  0  0  0  0  0  0
    5.1350    2.6180    0.0000 C   0  0  1  0  0  0  0  0  0  0  0  0
    6.0010   -4.8820    0.0000 C   0  0  1  0  0  0  0  0  0  0  0  0
    5.1350   -5.3820    0.0000 C   0  0  2  0  0  0  0  0  0  0  0  0
    4.2690   -3.8820    0.0000 C   0  0  1  0  0  0  0  0  0  0  0  0
    6.8671    2.6180    0.0000 C   0  0  0  0  0  0  0  0  0  0  0  0
    4.2690   -4.8820    0.0000 C   0  0  1  0  0  0  0  0  0  0  0  0
    3.4030   -3.3820    0.0000 C   0  0  0  0  0  0  0  0  0  0  0  0
    7.7331   -4.8820    0.0000 C   0  0  2  0  0  0  0  0  0  0  0  0
    8.5991   -5.3820    0.0000 C   0  0  1  0  0  0  0  0  0  0  0  0
    9.4651   -4.8820    0.0000 C   0  0  2  0  0  0  0  0  0  0  0  0
    8.5991   -3.3820    0.0000 C   0  0  0  0  0  0  0  0  0  0  0  0
    9.4651   -3.8820    0.0000 C   0  0  1  0  0  0  0  0  0  0  0  0
   12.5736    4.6880    0.0000 H   0  0  0  0  0  0  0  0  0  0  0  0
   11.3723    3.1746    0.0000 H   0  0  0  0  0  0  0  0  0  0  0  0
   12.9000    1.7868    0.0000 H   0  0  0  0  0  0  0  0  0  0  0  0
   13.6970    1.7837    0.0000 H   0  0  0  0  0  0  0  0  0  0  0  0
   11.9546    4.7698    0.0000 H   0  0  0  0  0  0  0  0  0  0  0  0
   11.1565    4.7821    0.0000 H   0  0  0  0  0  0  0  0  0  0  0  0
   14.1659    2.1368    0.0000 H   0  0  0  0  0  0  0  0  0  0  0  0
   10.4334    4.3757    0.0000 H   0  0  0  0  0  0  0  0  0  0  0  0
   10.0289    3.6875    0.0000 H   0  0  0  0  0  0  0  0  0  0  0  0
    9.6927    0.2831    0.0000 H   0  0  0  0  0  0  0  0  0  0  0  0
   11.7814    0.5679    0.0000 H   0  0  0  0  0  0  0  0  0  0  0  0
   12.1699    1.2653    0.0000 H   0  0  0  0  0  0  0  0  0  0  0  0
   13.5267    2.7647    0.0000 H   0  0  0  0  0  0  0  0  0  0  0  0
   14.2238    3.0198    0.0000 H   0  0  0  0  0  0  0  0  0  0  0  0
   13.0802    5.8829    0.0000 H   0  0  0  0  0  0  0  0  0  0  0  0
   12.6864    5.1886    0.0000 H   0  0  0  0  0  0  0  0  0  0  0  0
   15.2864    3.6741    0.0000 H   0  0  0  0  0  0  0  0  0  0  0  0
   15.6961    4.3592    0.0000 H   0  0  0  0  0  0  0  0  0  0  0  0
   10.2324    0.1167    0.0000 H   0  0  0  0  0  0  0  0  0  0  0  0
   11.0307    0.1228    0.0000 H   0  0  0  0  0  0  0  0  0  0  0  0
   12.1913    1.6127    0.0000 H   0  0  0  0  0  0  0  0  0  0  0  0
   12.9846    1.2391    0.0000 H   0  0  0  0  0  0  0  0  0  0  0  0
   13.3582    2.0324    0.0000 H   0  0  0  0  0  0  0  0  0  0  0  0
   11.7126    1.0684    0.0000 H   0  0  0  0  0  0  0  0  0  0  0  0
   12.5864    0.9953    0.0000 H   0  0  0  0  0  0  0  0  0  0  0  0
   12.6594    1.8691    0.0000 H   0  0  0  0  0  0  0  0  0  0  0  0
    9.1291    3.2701    0.0000 H   0  0  0  0  0  0  0  0  0  0  0  0
    8.3309    3.2824    0.0000 H   0  0  0  0  0  0  0  0  0  0  0  0
   15.7057    5.1886    0.0000 H   0  0  0  0  0  0  0  0  0  0  0  0
   15.3119    5.8829    0.0000 H   0  0  0  0  0  0  0  0  0  0  0  0
   10.3142    3.2156    0.0000 H   0  0  0  0  0  0  0  0  0  0  0  0
    9.6966    3.8380    0.0000 H   0  0  0  0  0  0  0  0  0  0  0  0
    9.0742    3.2204    0.0000 H   0  0  0  0  0  0  0  0  0  0  0  0
    7.1968    1.4290    0.0000 H   0  0  0  0  0  0  0  0  0  0  0  0
    7.5306    2.8326    0.0000 H   0  0  0  0  0  0  0  0  0  0  0  0
    7.1262    2.1444    0.0000 H   0  0  0  0  0  0  0  0  0  0  0  0
   15.0300    1.6335    0.0000 H   0  0  0  0  0  0  0  0  0  0  0  0
   15.2330    6.3820    0.0000 H   0  0  0  0  0  0  0  0  0  0  0  0
   15.0061    7.2290    0.0000 H   0  0  0  0  0  0  0  0  0  0  0  0
   14.1591    7.0020    0.0000 H   0  0  0  0  0  0  0  0  0  0  0  0
   14.2330    7.0020    0.0000 H   0  0  0  0  0  0  0  0  0  0  0  0
   13.3861    7.2290    0.0000 H   0  0  0  0  0  0  0  0  0  0  0  0
   13.1591    6.3820    0.0000 H   0  0  0  0  0  0  0  0  0  0  0  0
    8.6861   -0.6196    0.0000 H   0  0  0  0  0  0  0  0  0  0  0  0
    9.5348   -0.8400    0.0000 H   0  0  0  0  0  0  0  0  0  0  0  0
    9.7552    0.0087    0.0000 H   0  0  0  0  0  0  0  0  0  0  0  0
    7.6814   -0.0073    0.0000 H   0  0  0  0  0  0  0  0  0  0  0  0
    7.9148   -0.8525    0.0000 H   0  0  0  0  0  0  0  0  0  0  0  0
    8.7600   -0.6190    0.0000 H   0  0  0  0  0  0  0  0  0  0  0  0
    6.3301   -0.0720    0.0000 H   0  0  0  0  0  0  0  0  0  0  0  0
    6.0010   -0.2620    0.0000 H   0  0  0  0  0  0  0  0  0  0  0  0
    6.0010   -2.5020    0.0000 H   0  0  0  0  0  0  0  0  0  0  0  0
    7.9451   -2.4646    0.0000 H   0  0  0  0  0  0  0  0  0  0  0  0
    8.3437   -1.7744    0.0000 H   0  0  0  0  0  0  0  0  0  0  0  0
    7.4040   -2.6920    0.0000 H   0  0  0  0  0  0  0  0  0  0  0  0
    4.5981    0.3080    0.0000 H   0  0  0  0  0  0  0  0  0  0  0  0
    4.5981   -2.0720    0.0000 H   0  0  0  0  0  0  0  0  0  0  0  0
    3.7320    1.4280    0.0000 H   0  0  0  0  0  0  0  0  0  0  0  0
    6.0010   -3.2620    0.0000 H   0  0  0  0  0  0  0  0  0  0  0  0
    4.2690    2.7380    0.0000 H   0  0  0  0  0  0  0  0  0  0  0  0
    6.5380    1.8080    0.0000 H   0  0  0  0  0  0  0  0  0  0  0  0
    5.6720    2.9280    0.0000 H   0  0  0  0  0  0  0  0  0  0  0  0
    6.0010   -5.5020    0.0000 H   0  0  0  0  0  0  0  0  0  0  0  0
    2.8660    0.9280    0.0000 H   0  0  0  0  0  0  0  0  0  0  0  0
    4.5981   -5.6920    0.0000 H   0  0  0  0  0  0  0  0  0  0  0  0
    4.2690   -3.2620    0.0000 H   0  0  0  0  0  0  0  0  0  0  0  0
    7.0791    2.0354    0.0000 H   0  0  0  0  0  0  0  0  0  0  0  0
    7.4776    2.7256    0.0000 H   0  0  0  0  0  0  0  0  0  0  0  0
    4.2690   -5.5020    0.0000 H   0  0  0  0  0  0  0  0  0  0  0  0
    3.4030    3.2380    0.0000 H   0  0  0  0  0  0  0  0  0  0  0  0
    5.6720    3.9280    0.0000 H   0  0  0  0  0  0  0  0  0  0  0  0
    3.8015   -2.9071    0.0000 H   0  0  0  0  0  0  0  0  0  0  0  0
    3.0044   -2.9071    0.0000 H   0  0  0  0  0  0  0  0  0  0  0  0
    7.1962   -4.5720    0.0000 H   0  0  0  0  0  0  0  0  0  0  0  0
    4.5981   -6.6920    0.0000 H   0  0  0  0  0  0  0  0  0  0  0  0
    7.4040    3.9280    0.0000 H   0  0  0  0  0  0  0  0  0  0  0  0
    3.4030   -6.0020    0.0000 H   0  0  0  0  0  0  0  0  0  0  0  0
    8.0622   -5.6920    0.0000 H   0  0  0  0  0  0  0  0  0  0  0  0
    2.0000   -3.5720    0.0000 H   0  0  0  0  0  0  0  0  0  0  0  0
   10.0021   -4.5720    0.0000 H   0  0  0  0  0  0  0  0  0  0  0  0
    8.9976   -2.9071    0.0000 H   0  0  0  0  0  0  0  0  0  0  0  0
    8.2006   -2.9071    0.0000 H   0  0  0  0  0  0  0  0  0  0  0  0
    9.4651   -3.2620    0.0000 H   0  0  0  0  0  0  0  0  0  0  0  0
    8.0622   -6.6920    0.0000 H   0  0  0  0  0  0  0  0  0  0  0  0
   10.8681   -5.0720    0.0000 H   0  0  0  0  0  0  0  0  0  0  0  0
   10.3312   -2.7620    0.0000 H   0  0  0  0  0  0  0  0  0  0  0  0
  1 23  1  0  0  0  0
  1 35  1  0  0  0  0
 31  2  1  6  0  0  0
  2110  1  0  0  0  0
 46  3  1  1  0  0  0
 52  3  1  6  0  0  0
  4 52  1  0  0  0  0
  4 55  1  0  0  0  0
 53  5  1  1  0  0  0
 57  5  1  1  0  0  0
 54  6  1  6  0  0  0
  6130  1  0  0  0  0
 56  7  1  6  0  0  0
 59  7  1  1  0  0  0
  8 57  1  0  0  0  0
  8 61  1  0  0  0  0
 58  9  1  6  0  0  0
  9137  1  0  0  0  0
 10 59  1  0  0  0  0
 10 65  1  0  0  0  0
 60 11  1  1  0  0  0
 11143  1  0  0  0  0
 63 12  1  6  0  0  0
 69 12  1  6  0  0  0
 62 13  1  6  0  0  0
 13144  1  0  0  0  0
 64 14  1  1  0  0  0
 14148  1  0  0  0  0
 15 66  1  0  0  0  0
 15149  1  0  0  0  0
 67 16  1  6  0  0  0
 16150  1  0  0  0  0
 17 68  1  0  0  0  0
 17152  1  0  0  0  0
 18 69  1  0  0  0  0
 18 72  1  0  0  0  0
 70 19  1  1  0  0  0
 19157  1  0  0  0  0
 71 20  1  6  0  0  0
 20158  1  0  0  0  0
 73 21  1  1  0  0  0
 21159  1  0  0  0  0
 22 23  1  0  0  0  0
 22 24  1  0  0  0  0
 22 29  1  0  0  0  0
 22 39  1  6  0  0  0
 23 25  1  0  0  0  0
 23 30  1  1  0  0  0
 24 27  1  0  0  0  0
 24 34  1  0  0  0  0
 24 40  1  1  0  0  0
 25 26  1  0  0  0  0
 25 36  1  0  0  0  0
 25 74  1  1  0  0  0
 26 31  1  0  0  0  0
 26 35  1  0  0  0  0
 26 37  1  1  0  0  0
 27 28  1  0  0  0  0
 27 32  1  0  0  0  0
 27 75  1  6  0  0  0
 28 33  1  0  0  0  0
 28 43  1  0  0  0  0
 28 45  1  1  0  0  0
 29 31  1  0  0  0  0
 29 76  1  0  0  0  0
 29 77  1  0  0  0  0
 30 32  1  0  0  0  0
 30 78  1  0  0  0  0
 30 79  1  0  0  0  0
 31 80  1  0  0  0  0
 32 81  1  0  0  0  0
 32 82  1  0  0  0  0
 33 38  1  0  0  0  0
 33 42  1  0  0  0  0
 33 83  1  6  0  0  0
 34 38  1  0  0  0  0
 34 84  1  0  0  0  0
 34 85  1  0  0  0  0
 35 86  1  0  0  0  0
 35 87  1  0  0  0  0
 36 41  1  0  0  0  0
 36 88  1  0  0  0  0
 36 89  1  0  0  0  0
 37 44  1  0  0  0  0
 37 90  1  0  0  0  0
 37 91  1  0  0  0  0
 38 92  1  0  0  0  0
 38 93  1  0  0  0  0
 39 94  1  0  0  0  0
 39 95  1  0  0  0  0
 39 96  1  0  0  0  0
 40 97  1  0  0  0  0
 40 98  1  0  0  0  0
 40 99  1  0  0  0  0
 41 44  1  0  0  0  0
 41 48  1  0  0  0  0
 41 49  1  0  0  0  0
 42 46  1  0  0  0  0
 42 50  1  0  0  0  0
 42 51  1  0  0  0  0
 43 47  1  0  0  0  0
 43100  1  0  0  0  0
 43101  1  0  0  0  0
 44102  1  0  0  0  0
 44103  1  0  0  0  0
 45104  1  0  0  0  0
 45105  1  0  0  0  0
 45106  1  0  0  0  0
 46 47  1  0  0  0  0
 46107  1  0  0  0  0
 47108  1  0  0  0  0
 47109  1  0  0  0  0
 48111  1  0  0  0  0
 48112  1  0  0  0  0
 48113  1  0  0  0  0
 49114  1  0  0  0  0
 49115  1  0  0  0  0
 49116  1  0  0  0  0
 50117  1  0  0  0  0
 50118  1  0  0  0  0
 50119  1  0  0  0  0
 51120  1  0  0  0  0
 51121  1  0  0  0  0
 51122  1  0  0  0  0
 52 53  1  0  0  0  0
 52123  1  0  0  0  0
 53 54  1  0  0  0  0
 53124  1  0  0  0  0
 54 56  1  0  0  0  0
 54125  1  0  0  0  0
 55 56  1  0  0  0  0
 55126  1  0  0  0  0
 55127  1  0  0  0  0
 56128  1  0  0  0  0
 57 58  1  0  0  0  0
 57129  1  0  0  0  0
 58 60  1  0  0  0  0
 58131  1  0  0  0  0
 59 63  1  0  0  0  0
 59132  1  0  0  0  0
 60 62  1  0  0  0  0
 60133  1  0  0  0  0
 61 62  1  0  0  0  0
 61 66  1  1  0  0  0
 61134  1  0  0  0  0
 62135  1  0  0  0  0
 63 64  1  0  0  0  0
 63136  1  0  0  0  0
 64 67  1  0  0  0  0
 64138  1  0  0  0  0
 65 67  1  0  0  0  0
 65 68  1  1  0  0  0
 65139  1  0  0  0  0
 66140  1  0  0  0  0
 66141  1  0  0  0  0
 67142  1  0  0  0  0
 68145  1  0  0  0  0
 68146  1  0  0  0  0
 69 70  1  0  0  0  0
 69147  1  0  0  0  0
 70 71  1  0  0  0  0
 70151  1  0  0  0  0
 71 73  1  0  0  0  0
 71153  1  0  0  0  0
 72 73  1  0  0  0  0
 72154  1  0  0  0  0
 72155  1  0  0  0  0
 73156  1  0  0  0  0
M  END
> <PUBCHEM_COMPOUND_CID>
44593371

> <PUBCHEM_COMPOUND_CANONICALIZED>
1

> <PUBCHEM_CACTVS_COMPLEXITY>
1970

> <PUBCHEM_CACTVS_HBOND_ACCEPTOR>
21

> <PUBCHEM_CACTVS_HBOND_DONOR>
12

> <PUBCHEM_CACTVS_ROTATABLE_BOND>
10

> <PUBCHEM_CACTVS_SUBSKEYS>
AAADcfB8PgAAAAAAAAAAAAAAAAAAASAAAAA0aNGjBIAAAEjAAAAAGgAACAAAD1SwgAMCCAAABgAAAAAAAAAAAAAAAAAAAAAAAAAREAIAAAAiQAAFAAAHAAHA4PwPgAAAAAAAAADCAAYAADAAAAAAAAAAAA==

> <PUBCHEM_IUPAC_OPENEYE_NAME>
(2S,3R,4S,5S,6R)-2-[(2S,3R,4S,5S)-5-[(2S,3R,4S,5S,6R)-4,5-dihydroxy-6-(hydroxymethyl)-3-[(2S,3R,4S,5R)-3,4,5-trihydroxytetrahydropyran-2-yl]oxy-tetrahydropyran-2-yl]oxy-4-hydroxy-2-[[(1S,2R,4S,5R,8R,10S,13R,14R,17S,18R)-2-hydroxy-4,5,9,9,13,20,20-heptamethyl-24-oxahexacyclo[15.5.2.01,18.04,17.05,14.08,13]tetracosan-10-yl]oxy]tetrahydropyran-3-yl]oxy-6-(hydroxymethyl)tetrahydropyran-3,4,5-triol

> <PUBCHEM_IUPAC_CAS_NAME>
(2S,3R,4S,5S,6R)-2-[[(2S,3R,4S,5S)-5-[[(2S,3R,4S,5S,6R)-4,5-dihydroxy-6-(hydroxymethyl)-3-[[(2S,3R,4S,5R)-3,4,5-trihydroxy-2-oxanyl]oxy]-2-oxanyl]oxy]-4-hydroxy-2-[[(1S,2R,4S,5R,8R,10S,13R,14R,17S,18R)-2-hydroxy-4,5,9,9,13,20,20-heptamethyl-24-oxahexacyclo[15.5.2.01,18.04,17.05,14.08,13]tetracosan-10-yl]oxy]-3-oxanyl]oxy]-6-(hydroxymethyl)oxane-3,4,5-triol

> <PUBCHEM_IUPAC_NAME_MARKUP>
(2<I>S</I>,3<I>R</I>,4<I>S</I>,5<I>S</I>,6<I>R</I>)-2-[(2<I>S</I>,3<I>R</I>,4<I>S</I>,5<I>S</I>)-5-[(2<I>S</I>,3<I>R</I>,4<I>S</I>,5<I>S</I>,6<I>R</I>)-4,5-dihydroxy-6-(hydroxymethyl)-3-[(2<I>S</I>,3<I>R</I>,4<I>S</I>,5<I>R</I>)-3,4,5-trihydroxyoxan-2-yl]oxyoxan-2-yl]oxy-4-hydroxy-2-[[(1<I>S</I>,2<I>R</I>,4<I>S</I>,5<I>R</I>,8<I>R</I>,10<I>S</I>,13<I>R</I>,14<I>R</I>,17<I>S</I>,18<I>R</I>)-2-hydroxy-4,5,9,9,13,20,20-heptamethyl-24-oxahexacyclo[15.5.2.0<SUP>1,18</SUP>.0<SUP>4,17</SUP>.0<SUP>5,14</SUP>.0<SUP>8,13</SUP>]tetracosan-10-yl]oxy]oxan-3-yl]oxy-6-(hydroxymethyl)oxane-3,4,5-triol

> <PUBCHEM_IUPAC_NAME>
(2S,3R,4S,5S,6R)-2-[(2S,3R,4S,5S)-5-[(2S,3R,4S,5S,6R)-4,5-dihydroxy-6-(hydroxymethyl)-3-[(2S,3R,4S,5R)-3,4,5-trihydroxyoxan-2-yl]oxyoxan-2-yl]oxy-4-hydroxy-2-[[(1S,2R,4S,5R,8R,10S,13R,14R,17S,18R)-2-hydroxy-4,5,9,9,13,20,20-heptamethyl-24-oxahexacyclo[15.5.2.01,18.04,17.05,14.08,13]tetracosan-10-yl]oxy]oxan-3-yl]oxy-6-(hydroxymethyl)oxane-3,4,5-triol

> <PUBCHEM_IUPAC_SYSTEMATIC_NAME>
(2S,3R,4S,5S,6R)-2-[(2S,3R,4S,5S)-2-[[(1S,2R,4S,5R,8R,10S,13R,14R,17S,18R)-4,5,9,9,13,20,20-heptamethyl-2-oxidanyl-24-oxahexacyclo[15.5.2.01,18.04,17.05,14.08,13]tetracosan-10-yl]oxy]-5-[(2S,3R,4S,5S,6R)-6-(hydroxymethyl)-4,5-bis(oxidanyl)-3-[(2S,3R,4S,5R)-3,4,5-tris(oxidanyl)oxan-2-yl]oxy-oxan-2-yl]oxy-4-oxidanyl-oxan-3-yl]oxy-6-(hydroxymethyl)oxane-3,4,5-triol

> <PUBCHEM_IUPAC_TRADITIONAL_NAME>
(2S,3R,4S,5S,6R)-2-[(2S,3R,4S,5S)-5-[(2S,3R,4S,5S,6R)-4,5-dihydroxy-6-methylol-3-[(2S,3R,4S,5R)-3,4,5-trihydroxytetrahydropyran-2-yl]oxy-tetrahydropyran-2-yl]oxy-4-hydroxy-2-[[(1S,2R,4S,5R,8R,10S,13R,14R,17S,18R)-2-hydroxy-4,5,9,9,13,20,20-heptamethyl-24-oxahexacyclo[15.5.2.01,18.04,17.05,14.08,13]tetracosan-10-yl]oxy]tetrahydropyran-3-yl]oxy-6-methylol-tetrahydropyran-3,4,5-triol

> <PUBCHEM_IUPAC_INCHI>
InChI=1S/C52H86O21/c1-46(2)14-15-51-22-67-52(29(51)16-46)13-9-28-48(5)11-10-31(47(3,4)27(48)8-12-49(28,6)50(52,7)17-30(51)56)71-44-40(73-43-39(64)36(61)33(58)24(18-53)68-43)35(60)26(21-66-44)70-45-41(37(62)34(59)25(19-54)69-45)72-42-38(63)32(57)23(55)20-65-42/h23-45,53-64H,8-22H2,1-7H3/t23-,24-,25-,26+,27+,28-,29-,30-,31+,32+,33-,34-,35+,36+,37+,38-,39-,40-,41-,42+,43+,44+,45+,48+,49-,50+,51-,52+/m1/s1

> <PUBCHEM_IUPAC_INCHIKEY>
GQENXAKENMICMF-UXYUNAJASA-N

> <PUBCHEM_XLOGP3_AA>
0.5

> <PUBCHEM_EXACT_MASS>
1046.56616

> <PUBCHEM_MOLECULAR_FORMULA>
C52H86O21

> <PUBCHEM_MOLECULAR_WEIGHT>
1047.2

> <PUBCHEM_OPENEYE_CAN_SMILES>
CC1(CCC23COC4(C2C1)CCC5C6(CCC(C(C6CCC5(C4(CC3O)C)C)(C)C)OC7C(C(C(CO7)OC8C(C(C(C(O8)CO)O)O)OC9C(C(C(CO9)O)O)O)O)OC1C(C(C(C(O1)CO)O)O)O)C)C

> <PUBCHEM_OPENEYE_ISO_SMILES>
C[C@]12CC[C@@H](C([C@@H]1CC[C@@]3([C@@H]2CC[C@@]45[C@]3(C[C@H]([C@@]6([C@H]4CC(CC6)(C)C)CO5)O)C)C)(C)C)O[C@H]7[C@@H]([C@H]([C@H](CO7)O[C@H]8[C@@H]([C@H]([C@@H]([C@H](O8)CO)O)O)O[C@H]9[C@@H]([C@H]([C@@H](CO9)O)O)O)O)O[C@H]1[C@@H]([C@H]([C@@H]([C@H](O1)CO)O)O)O

> <PUBCHEM_CACTVS_TPSA>
326

> <PUBCHEM_MONOISOTOPIC_WEIGHT>
1046.56616

> <PUBCHEM_TOTAL_CHARGE>
0

> <PUBCHEM_HEAVY_ATOM_COUNT>
73

> <PUBCHEM_ATOM_DEF_STEREO_COUNT>
28

> <PUBCHEM_ATOM_UDEF_STEREO_COUNT>
0

> <PUBCHEM_BOND_DEF_STEREO_COUNT>
0

> <PUBCHEM_BOND_UDEF_STEREO_COUNT>
0

> <PUBCHEM_ISOTOPIC_ATOM_COUNT>
0

> <PUBCHEM_COMPONENT_COUNT>
1

> <PUBCHEM_CACTVS_TAUTO_COUNT>
-1

> <PUBCHEM_COORDINATE_TYPE>
1
5
255

> <PUBCHEM_BONDANNOTATIONS>
60  11  5
63  12  6
69  12  6
62  13  6
64  14  5
67  16  6
70  19  5
31  2  6
71  20  6
73  21  5
22  39  6
23  30  5
24  40  5
25  74  5
26  37  5
27  75  6
28  45  5
46  3  5
52  3  6
33  83  6
53  5  5
57  5  5
54  6  6
61  66  5
65  68  5
56  7  6
59  7  5
58  9  6

$$$$
