13878346
  -OEChem-09172005442D

123129  0     1  0  0  0  0  0999 V2000
    8.5991   -1.3545    0.0000 O   0  0  0  0  0  0  0  0  0  0  0  0
   10.4202   -3.1254    0.0000 O   0  0  0  0  0  0  0  0  0  0  0  0
   17.5122    1.7664    0.0000 O   0  0  0  0  0  0  0  0  0  0  0  0
   16.6636    0.2565    0.0000 O   0  0  0  0  0  0  0  0  0  0  0  0
   17.2585    4.7909    0.0000 O   0  0  0  0  0  0  0  0  0  0  0  0
    7.7331    0.1455    0.0000 O   0  0  0  0  0  0  0  0  0  0  0  0
   15.7453    5.6337    0.0000 O   0  0  0  0  0  0  0  0  0  0  0  0
    6.8671   -2.3545    0.0000 O   0  0  0  0  0  0  0  0  0  0  0  0
    5.1350   -1.3545    0.0000 O   0  0  0  0  0  0  0  0  0  0  0  0
    5.1350    0.6455    0.0000 O   0  0  0  0  0  0  0  0  0  0  0  0
    5.1350   -2.3545    0.0000 O   0  0  0  0  0  0  0  0  0  0  0  0
    6.8671   -4.3545    0.0000 O   0  0  0  0  0  0  0  0  0  0  0  0
    5.1350   -5.3545    0.0000 O   0  0  0  0  0  0  0  0  0  0  0  0
    3.4030   -4.3545    0.0000 O   0  0  0  0  0  0  0  0  0  0  0  0
    2.5369   -2.8545    0.0000 O   0  0  0  0  0  0  0  0  0  0  0  0
   13.1202    0.2153    0.0000 C   0  0  3  0  0  0  0  0  0  0  0  0
   11.3442    0.2016    0.0000 C   0  0  3  0  0  0  0  0  0  0  0  0
   12.2522    0.7119    0.0000 C   0  0  3  0  0  0  0  0  0  0  0  0
   13.9842    0.7186    0.0000 C   0  0  3  0  0  0  0  0  0  0  0  0
   11.3402   -0.8400    0.0000 C   0  0  3  0  0  0  0  0  0  0  0  0
   13.1402   -0.8262    0.0000 C   0  0  0  0  0  0  0  0  0  0  0  0
   10.4069   -1.3934    0.0000 C   0  0  3  0  0  0  0  0  0  0  0  0
   12.2442   -1.3574    0.0000 C   0  0  0  0  0  0  0  0  0  0  0  0
   13.9804    1.7186    0.0000 C   0  0  0  0  0  0  0  0  0  0  0  0
   10.4152    0.7621    0.0000 C   0  0  0  0  0  0  0  0  0  0  0  0
   12.2484    1.7119    0.0000 C   0  0  0  0  0  0  0  0  0  0  0  0
   14.8723    2.2567    0.0000 C   0  0  3  0  0  0  0  0  0  0  0  0
   14.8802    0.1874    0.0000 C   0  0  0  0  0  0  0  0  0  0  0  0
   15.7803    1.7464    0.0000 C   0  0  3  0  0  0  0  0  0  0  0  0
    9.4651   -0.8545    0.0000 C   0  0  3  0  0  0  0  0  0  0  0  0
   13.7659   -0.5483    0.0000 C   0  0  0  0  0  0  0  0  0  0  0  0
   15.7843    0.7047    0.0000 C   0  0  0  0  0  0  0  0  0  0  0  0
   11.3480    1.2016    0.0000 C   0  0  0  0  0  0  0  0  0  0  0  0
    9.4693    0.2305    0.0000 C   0  0  0  0  0  0  0  0  0  0  0  0
   13.1124    2.2153    0.0000 C   0  0  0  0  0  0  0  0  0  0  0  0
   14.3299   -0.2198    0.0000 C   0  0  0  0  0  0  0  0  0  0  0  0
   14.8430    3.3413    0.0000 C   0  0  0  0  0  0  0  0  0  0  0  0
   16.7220    2.2852    0.0000 C   0  0  0  0  0  0  0  0  0  0  0  0
   10.9135   -2.2555    0.0000 C   0  0  0  0  0  0  0  0  0  0  0  0
    9.9136   -2.2632    0.0000 C   0  0  0  0  0  0  0  0  0  0  0  0
   15.7720    3.9018    0.0000 C   0  0  3  0  0  0  0  0  0  0  0  0
   16.7178    3.3702    0.0000 C   0  0  0  0  0  0  0  0  0  0  0  0
   16.6521    1.2564    0.0000 C   0  0  0  0  0  0  0  0  0  0  0  0
   15.2587    4.7600    0.0000 C   0  0  0  0  0  0  0  0  0  0  0  0
   16.2586    4.7754    0.0000 C   0  0  0  0  0  0  0  0  0  0  0  0
    7.7331   -0.8545    0.0000 C   0  0  3  0  0  0  0  0  0  0  0  0
    6.8671   -1.3545    0.0000 C   0  0  3  0  0  0  0  0  0  0  0  0
    6.0010   -0.8545    0.0000 C   0  0  3  0  0  0  0  0  0  0  0  0
    6.8671    0.6455    0.0000 C   0  0  0  0  0  0  0  0  0  0  0  0
    6.0010    0.1455    0.0000 C   0  0  3  0  0  0  0  0  0  0  0  0
   17.7451    5.6645    0.0000 C   0  0  0  0  0  0  0  0  0  0  0  0
    6.0010   -2.8545    0.0000 C   0  0  3  0  0  0  0  0  0  0  0  0
    6.0010   -3.8545    0.0000 C   0  0  3  0  0  0  0  0  0  0  0  0
    5.1350   -4.3545    0.0000 C   0  0  3  0  0  0  0  0  0  0  0  0
    4.2690   -2.8545    0.0000 C   0  0  3  0  0  0  0  0  0  0  0  0
    4.2690   -3.8545    0.0000 C   0  0  3  0  0  0  0  0  0  0  0  0
    3.4030   -2.3545    0.0000 C   0  0  0  0  0  0  0  0  0  0  0  0
   12.7879    1.0240    0.0000 H   0  0  0  0  0  0  0  0  0  0  0  0
   11.3449   -1.4600    0.0000 H   0  0  0  0  0  0  0  0  0  0  0  0
   13.3605   -1.4057    0.0000 H   0  0  0  0  0  0  0  0  0  0  0  0
   13.7489   -0.7083    0.0000 H   0  0  0  0  0  0  0  0  0  0  0  0
   11.8488   -1.8349    0.0000 H   0  0  0  0  0  0  0  0  0  0  0  0
   12.6470   -1.8287    0.0000 H   0  0  0  0  0  0  0  0  0  0  0  0
   10.8216    1.2303    0.0000 H   0  0  0  0  0  0  0  0  0  0  0  0
   10.0234    1.2426    0.0000 H   0  0  0  0  0  0  0  0  0  0  0  0
   12.0341    2.2937    0.0000 H   0  0  0  0  0  0  0  0  0  0  0  0
   11.6382    1.6019    0.0000 H   0  0  0  0  0  0  0  0  0  0  0  0
   15.4031    2.5770    0.0000 H   0  0  0  0  0  0  0  0  0  0  0  0
   14.4775   -0.2839    0.0000 H   0  0  0  0  0  0  0  0  0  0  0  0
   15.2757   -0.2901    0.0000 H   0  0  0  0  0  0  0  0  0  0  0  0
    9.4663   -1.4745    0.0000 H   0  0  0  0  0  0  0  0  0  0  0  0
   13.2925   -0.9486    0.0000 H   0  0  0  0  0  0  0  0  0  0  0  0
   14.1662   -1.0217    0.0000 H   0  0  0  0  0  0  0  0  0  0  0  0
   14.2393   -0.1479    0.0000 H   0  0  0  0  0  0  0  0  0  0  0  0
   15.9956    0.1219    0.0000 H   0  0  0  0  0  0  0  0  0  0  0  0
   16.3948    0.8132    0.0000 H   0  0  0  0  0  0  0  0  0  0  0  0
   11.9680    1.1992    0.0000 H   0  0  0  0  0  0  0  0  0  0  0  0
   11.3504    1.8216    0.0000 H   0  0  0  0  0  0  0  0  0  0  0  0
   10.7280    1.2040    0.0000 H   0  0  0  0  0  0  0  0  0  0  0  0
    9.2625    0.8150    0.0000 H   0  0  0  0  0  0  0  0  0  0  0  0
    8.8581    0.1268    0.0000 H   0  0  0  0  0  0  0  0  0  0  0  0
   13.1101    2.8353    0.0000 H   0  0  0  0  0  0  0  0  0  0  0  0
   13.7481   -0.4341    0.0000 H   0  0  0  0  0  0  0  0  0  0  0  0
   14.5442   -0.8015    0.0000 H   0  0  0  0  0  0  0  0  0  0  0  0
   14.9117   -0.0055    0.0000 H   0  0  0  0  0  0  0  0  0  0  0  0
   14.6183    3.9192    0.0000 H   0  0  0  0  0  0  0  0  0  0  0  0
   14.2352    3.2188    0.0000 H   0  0  0  0  0  0  0  0  0  0  0  0
   16.9333    1.7024    0.0000 H   0  0  0  0  0  0  0  0  0  0  0  0
   17.3325    2.3937    0.0000 H   0  0  0  0  0  0  0  0  0  0  0  0
   11.3915   -2.6504    0.0000 H   0  0  0  0  0  0  0  0  0  0  0  0
   11.3854   -1.8533    0.0000 H   0  0  0  0  0  0  0  0  0  0  0  0
    9.3742   -1.9574    0.0000 H   0  0  0  0  0  0  0  0  0  0  0  0
    9.6077   -2.8025    0.0000 H   0  0  0  0  0  0  0  0  0  0  0  0
   10.4529   -2.5691    0.0000 H   0  0  0  0  0  0  0  0  0  0  0  0
   17.3291    3.2665    0.0000 H   0  0  0  0  0  0  0  0  0  0  0  0
   16.9246    3.9547    0.0000 H   0  0  0  0  0  0  0  0  0  0  0  0
   15.7908    5.0783    0.0000 H   0  0  0  0  0  0  0  0  0  0  0  0
   14.9405    5.2921    0.0000 H   0  0  0  0  0  0  0  0  0  0  0  0
   14.7266    4.4418    0.0000 H   0  0  0  0  0  0  0  0  0  0  0  0
    7.7331   -1.4745    0.0000 H   0  0  0  0  0  0  0  0  0  0  0  0
   10.7343   -3.6599    0.0000 H   0  0  0  0  0  0  0  0  0  0  0  0
   18.0527    1.4626    0.0000 H   0  0  0  0  0  0  0  0  0  0  0  0
    6.3301   -1.6645    0.0000 H   0  0  0  0  0  0  0  0  0  0  0  0
    5.4641   -0.5445    0.0000 H   0  0  0  0  0  0  0  0  0  0  0  0
    7.2656    1.1205    0.0000 H   0  0  0  0  0  0  0  0  0  0  0  0
    6.4685    1.1205    0.0000 H   0  0  0  0  0  0  0  0  0  0  0  0
    6.0010    0.7655    0.0000 H   0  0  0  0  0  0  0  0  0  0  0  0
   18.2867    5.3628    0.0000 H   0  0  0  0  0  0  0  0  0  0  0  0
   18.0467    6.2061    0.0000 H   0  0  0  0  0  0  0  0  0  0  0  0
   17.2034    5.9662    0.0000 H   0  0  0  0  0  0  0  0  0  0  0  0
    6.0010   -2.2345    0.0000 H   0  0  0  0  0  0  0  0  0  0  0  0
    4.5981   -1.0445    0.0000 H   0  0  0  0  0  0  0  0  0  0  0  0
    5.1350    1.2655    0.0000 H   0  0  0  0  0  0  0  0  0  0  0  0
    6.5380   -3.5445    0.0000 H   0  0  0  0  0  0  0  0  0  0  0  0
    5.6720   -4.6645    0.0000 H   0  0  0  0  0  0  0  0  0  0  0  0
    4.2690   -2.2345    0.0000 H   0  0  0  0  0  0  0  0  0  0  0  0
    3.7320   -3.5445    0.0000 H   0  0  0  0  0  0  0  0  0  0  0  0
    7.4040   -4.0445    0.0000 H   0  0  0  0  0  0  0  0  0  0  0  0
    3.8015   -1.8795    0.0000 H   0  0  0  0  0  0  0  0  0  0  0  0
    3.0044   -1.8795    0.0000 H   0  0  0  0  0  0  0  0  0  0  0  0
    5.6720   -5.6645    0.0000 H   0  0  0  0  0  0  0  0  0  0  0  0
    3.4030   -4.9745    0.0000 H   0  0  0  0  0  0  0  0  0  0  0  0
    2.0000   -2.5445    0.0000 H   0  0  0  0  0  0  0  0  0  0  0  0
  1 30  1  0  0  0  0
  1 46  1  0  0  0  0
  2 39  1  0  0  0  0
  2101  1  0  0  0  0
  3 43  1  0  0  0  0
  3102  1  0  0  0  0
  4 43  2  0  0  0  0
  5 45  1  0  0  0  0
  5 51  1  0  0  0  0
  6 46  1  0  0  0  0
  6 49  1  0  0  0  0
  7 45  2  0  0  0  0
  8 47  1  0  0  0  0
  8 52  1  0  0  0  0
  9 48  1  0  0  0  0
  9112  1  0  0  0  0
 10 50  1  0  0  0  0
 10113  1  0  0  0  0
 11 52  1  0  0  0  0
 11 55  1  0  0  0  0
 12 53  1  0  0  0  0
 12118  1  0  0  0  0
 13 54  1  0  0  0  0
 13121  1  0  0  0  0
 14 56  1  0  0  0  0
 14122  1  0  0  0  0
 15 57  1  0  0  0  0
 15123  1  0  0  0  0
 16 18  1  0  0  0  0
 16 19  1  0  0  0  0
 16 21  1  0  0  0  0
 16 31  1  0  0  0  0
 17 18  1  0  0  0  0
 17 20  1  0  0  0  0
 17 25  1  0  0  0  0
 17 33  1  0  0  0  0
 18 26  1  0  0  0  0
 18 58  1  0  0  0  0
 19 24  1  0  0  0  0
 19 28  1  0  0  0  0
 19 36  1  0  0  0  0
 20 22  1  0  0  0  0
 20 23  1  0  0  0  0
 20 59  1  0  0  0  0
 21 23  1  0  0  0  0
 21 60  1  0  0  0  0
 21 61  1  0  0  0  0
 22 30  1  0  0  0  0
 22 39  1  0  0  0  0
 22 40  1  0  0  0  0
 23 62  1  0  0  0  0
 23 63  1  0  0  0  0
 24 27  1  0  0  0  0
 24 35  2  0  0  0  0
 25 34  1  0  0  0  0
 25 64  1  0  0  0  0
 25 65  1  0  0  0  0
 26 35  1  0  0  0  0
 26 66  1  0  0  0  0
 26 67  1  0  0  0  0
 27 29  1  0  0  0  0
 27 37  1  0  0  0  0
 27 68  1  0  0  0  0
 28 32  1  0  0  0  0
 28 69  1  0  0  0  0
 28 70  1  0  0  0  0
 29 32  1  0  0  0  0
 29 38  1  0  0  0  0
 29 43  1  0  0  0  0
 30 34  1  0  0  0  0
 30 71  1  0  0  0  0
 31 72  1  0  0  0  0
 31 73  1  0  0  0  0
 31 74  1  0  0  0  0
 32 75  1  0  0  0  0
 32 76  1  0  0  0  0
 33 77  1  0  0  0  0
 33 78  1  0  0  0  0
 33 79  1  0  0  0  0
 34 80  1  0  0  0  0
 34 81  1  0  0  0  0
 35 82  1  0  0  0  0
 36 83  1  0  0  0  0
 36 84  1  0  0  0  0
 36 85  1  0  0  0  0
 37 41  1  0  0  0  0
 37 86  1  0  0  0  0
 37 87  1  0  0  0  0
 38 42  1  0  0  0  0
 38 88  1  0  0  0  0
 38 89  1  0  0  0  0
 39 90  1  0  0  0  0
 39 91  1  0  0  0  0
 40 92  1  0  0  0  0
 40 93  1  0  0  0  0
 40 94  1  0  0  0  0
 41 42  1  0  0  0  0
 41 44  1  0  0  0  0
 41 45  1  0  0  0  0
 42 95  1  0  0  0  0
 42 96  1  0  0  0  0
 44 97  1  0  0  0  0
 44 98  1  0  0  0  0
 44 99  1  0  0  0  0
 46 47  1  0  0  0  0
 46100  1  0  0  0  0
 47 48  1  0  0  0  0
 47103  1  0  0  0  0
 48 50  1  0  0  0  0
 48104  1  0  0  0  0
 49 50  1  0  0  0  0
 49105  1  0  0  0  0
 49106  1  0  0  0  0
 50107  1  0  0  0  0
 51108  1  0  0  0  0
 51109  1  0  0  0  0
 51110  1  0  0  0  0
 52 53  1  0  0  0  0
 52111  1  0  0  0  0
 53 54  1  0  0  0  0
 53114  1  0  0  0  0
 54 56  1  0  0  0  0
 54115  1  0  0  0  0
 55 56  1  0  0  0  0
 55 57  1  0  0  0  0
 55116  1  0  0  0  0
 56117  1  0  0  0  0
 57119  1  0  0  0  0
 57120  1  0  0  0  0
M  END
> <PUBCHEM_COMPOUND_CID>
13878346

> <PUBCHEM_COMPOUND_CANONICALIZED>
1

> <PUBCHEM_CACTVS_COMPLEXITY>
1570

> <PUBCHEM_CACTVS_HBOND_ACCEPTOR>
15

> <PUBCHEM_CACTVS_HBOND_DONOR>
8

> <PUBCHEM_CACTVS_ROTATABLE_BOND>
9

> <PUBCHEM_CACTVS_SUBSKEYS>
AAADcfB8PAAAAAAAAAAAAAAAAAAAAAAAAAA0aMGCAAAAAADAAAAAGgAACAAADxSwgAMCCAAABgCIAiDSCAAAAAAgAAAACAEAAAgREBIAAQAiQAAFgAAPAAPI6PyPgAAAAAAAAADAAAYAADAAAAAAAAAAAA==

> <PUBCHEM_IUPAC_OPENEYE_NAME>
10-[4,5-dihydroxy-3-[3,4,5-trihydroxy-6-(hydroxymethyl)tetrahydropyran-2-yl]oxy-tetrahydropyran-2-yl]oxy-9-(hydroxymethyl)-2-methoxycarbonyl-2,6a,6b,9,12a-pentamethyl-1,3,4,5,6,6a,7,8,8a,10,11,12,13,14b-tetradecahydropicene-4a-carboxylic acid

> <PUBCHEM_IUPAC_CAS_NAME>
10-[[4,5-dihydroxy-3-[[3,4,5-trihydroxy-6-(hydroxymethyl)-2-oxanyl]oxy]-2-oxanyl]oxy]-9-(hydroxymethyl)-2-methoxycarbonyl-2,6a,6b,9,12a-pentamethyl-1,3,4,5,6,6a,7,8,8a,10,11,12,13,14b-tetradecahydropicene-4a-carboxylic acid

> <PUBCHEM_IUPAC_NAME_MARKUP>
10-[4,5-dihydroxy-3-[3,4,5-trihydroxy-6-(hydroxymethyl)oxan-2-yl]oxyoxan-2-yl]oxy-9-(hydroxymethyl)-2-methoxycarbonyl-2,6<I>a</I>,6<I>b</I>,9,12<I>a</I>-pentamethyl-1,3,4,5,6,6<I>a</I>,7,8,8<I>a</I>,10,11,12,13,14<I>b</I>-tetradecahydropicene-4<I>a</I>-carboxylic acid

> <PUBCHEM_IUPAC_NAME>
10-[4,5-dihydroxy-3-[3,4,5-trihydroxy-6-(hydroxymethyl)oxan-2-yl]oxyoxan-2-yl]oxy-9-(hydroxymethyl)-2-methoxycarbonyl-2,6a,6b,9,12a-pentamethyl-1,3,4,5,6,6a,7,8,8a,10,11,12,13,14b-tetradecahydropicene-4a-carboxylic acid

> <PUBCHEM_IUPAC_SYSTEMATIC_NAME>
9-(hydroxymethyl)-10-[3-[6-(hydroxymethyl)-3,4,5-tris(oxidanyl)oxan-2-yl]oxy-4,5-bis(oxidanyl)oxan-2-yl]oxy-2-methoxycarbonyl-2,6a,6b,9,12a-pentamethyl-1,3,4,5,6,6a,7,8,8a,10,11,12,13,14b-tetradecahydropicene-4a-carboxylic acid

> <PUBCHEM_IUPAC_TRADITIONAL_NAME>
2-carbomethoxy-10-[4,5-dihydroxy-3-(3,4,5-trihydroxy-6-methylol-tetrahydropyran-2-yl)oxy-tetrahydropyran-2-yl]oxy-2,6a,6b,9,12a-pentamethyl-9-methylol-1,3,4,5,6,6a,7,8,8a,10,11,12,13,14b-tetradecahydropicene-4a-carboxylic acid

> <PUBCHEM_IUPAC_INCHI>
InChI=1S/C42H66O15/c1-37(36(52)53-6)13-15-42(35(50)51)16-14-40(4)21(22(42)17-37)7-8-26-38(2)11-10-27(39(3,20-44)25(38)9-12-41(26,40)5)56-34-32(28(46)23(45)19-54-34)57-33-31(49)30(48)29(47)24(18-43)55-33/h7,22-34,43-49H,8-20H2,1-6H3,(H,50,51)

> <PUBCHEM_IUPAC_INCHIKEY>
CTWMGJMDAUJZDO-UHFFFAOYSA-N

> <PUBCHEM_XLOGP3_AA>
1.8

> <PUBCHEM_EXACT_MASS>
810.440171

> <PUBCHEM_MOLECULAR_FORMULA>
C42H66O15

> <PUBCHEM_MOLECULAR_WEIGHT>
811

> <PUBCHEM_OPENEYE_CAN_SMILES>
CC1(CCC2(CCC3(C(=CCC4C3(CCC5C4(CCC(C5(C)CO)OC6C(C(C(CO6)O)O)OC7C(C(C(C(O7)CO)O)O)O)C)C)C2C1)C)C(=O)O)C(=O)OC

> <PUBCHEM_OPENEYE_ISO_SMILES>
CC1(CCC2(CCC3(C(=CCC4C3(CCC5C4(CCC(C5(C)CO)OC6C(C(C(CO6)O)O)OC7C(C(C(C(O7)CO)O)O)O)C)C)C2C1)C)C(=O)O)C(=O)OC

> <PUBCHEM_CACTVS_TPSA>
242

> <PUBCHEM_MONOISOTOPIC_WEIGHT>
810.440171

> <PUBCHEM_TOTAL_CHARGE>
0

> <PUBCHEM_HEAVY_ATOM_COUNT>
57

> <PUBCHEM_ATOM_DEF_STEREO_COUNT>
0

> <PUBCHEM_ATOM_UDEF_STEREO_COUNT>
19

> <PUBCHEM_BOND_DEF_STEREO_COUNT>
0

> <PUBCHEM_BOND_UDEF_STEREO_COUNT>
0

> <PUBCHEM_ISOTOPIC_ATOM_COUNT>
0

> <PUBCHEM_COMPONENT_COUNT>
1

> <PUBCHEM_CACTVS_TAUTO_COUNT>
-1

> <PUBCHEM_COORDINATE_TYPE>
1
5
255

> <PUBCHEM_BONDANNOTATIONS>
30  1  3
46  1  3
50  10  3
53  12  3
54  13  3
56  14  3
16  31  3
17  33  3
18  26  3
19  36  3
20  23  3
22  40  3
27  37  3
29  43  3
41  44  3
55  57  3
47  8  3
52  8  3
48  9  3

$$$$
