24721561
  -OEChem-09132016102D

149155  0     1  0  0  0  0  0999 V2000
   10.0160   -1.2197    0.0000 O   0  0  0  0  0  0  0  0  0  0  0  0
    9.1164    4.3461    0.0000 O   0  0  0  0  0  0  0  0  0  0  0  0
    6.6801    5.0425    0.0000 O   0  0  0  0  0  0  0  0  0  0  0  0
   13.6609   -0.1887    0.0000 O   0  0  0  0  0  0  0  0  0  0  0  0
    8.2839   -1.2197    0.0000 O   0  0  0  0  0  0  0  0  0  0  0  0
    5.0358    4.4981    0.0000 O   0  0  0  0  0  0  0  0  0  0  0  0
   10.0160   -3.2197    0.0000 O   0  0  0  0  0  0  0  0  0  0  0  0
    8.2839   -4.2197    0.0000 O   0  0  0  0  0  0  0  0  0  0  0  0
    6.0514    6.9411    0.0000 O   0  0  0  0  0  0  0  0  0  0  0  0
    6.5519   -3.2197    0.0000 O   0  0  0  0  0  0  0  0  0  0  0  0
    4.0929    7.3460    0.0000 O   0  0  0  0  0  0  0  0  0  0  0  0
    2.7629    5.8523    0.0000 O   0  0  0  0  0  0  0  0  0  0  0  0
    9.1499   -4.7197    0.0000 O   0  0  0  0  0  0  0  0  0  0  0  0
    5.6858   -1.7197    0.0000 O   0  0  0  0  0  0  0  0  0  0  0  0
    2.4123    4.1561    0.0000 O   0  0  0  0  0  0  0  0  0  0  0  0
   11.7480   -4.2197    0.0000 O   0  0  0  0  0  0  0  0  0  0  0  0
   11.7480   -6.2197    0.0000 O   0  0  0  0  0  0  0  0  0  0  0  0
   10.0160   -7.2197    0.0000 O   0  0  0  0  0  0  0  0  0  0  0  0
    7.4179   -5.7197    0.0000 O   0  0  0  0  0  0  0  0  0  0  0  0
    9.1279    1.3461    0.0000 C   0  0  1  0  0  0  0  0  0  0  0  0
    8.2600    1.8428    0.0000 C   0  0  1  0  0  0  0  0  0  0  0  0
    9.9920    1.8495    0.0000 C   0  0  1  0  0  0  0  0  0  0  0  0
   10.9040    1.3461    0.0000 C   0  0  2  0  0  0  0  0  0  0  0  0
    8.2561    2.8428    0.0000 C   0  0  1  0  0  0  0  0  0  0  0  0
   10.9160    0.3046    0.0000 C   0  0  1  0  0  0  0  0  0  0  0  0
    9.1159    0.3046    0.0000 C   0  0  0  0  0  0  0  0  0  0  0  0
    9.9882    2.8495    0.0000 C   0  0  0  0  0  0  0  0  0  0  0  0
    7.3088    3.1439    0.0000 C   0  0  2  0  0  0  0  0  0  0  0  0
    9.1202    3.3461    0.0000 C   0  0  1  0  0  0  0  0  0  0  0  0
    7.3150    1.5344    0.0000 C   0  0  0  0  0  0  0  0  0  0  0  0
   10.0160   -0.2197    0.0000 C   0  0  2  0  0  0  0  0  0  0  0  0
   11.8536   -0.2415    0.0000 C   0  0  0  0  0  0  0  0  0  0  0  0
    6.7282    2.3369    0.0000 C   0  0  0  0  0  0  0  0  0  0  0  0
   11.8286    1.9138    0.0000 C   0  0  0  0  0  0  0  0  0  0  0  0
    8.4881    0.5776    0.0000 C   0  0  0  0  0  0  0  0  0  0  0  0
    7.9216    0.9018    0.0000 C   0  0  0  0  0  0  0  0  0  0  0  0
   10.8924    2.3461    0.0000 C   0  0  0  0  0  0  0  0  0  0  0  0
   12.7911    0.3046    0.0000 C   0  0  2  0  0  0  0  0  0  0  0  0
    6.9944    4.0932    0.0000 C   0  0  2  0  0  0  0  0  0  0  0  0
   12.7785    1.3895    0.0000 C   0  0  0  0  0  0  0  0  0  0  0  0
   12.3536   -1.1076    0.0000 C   0  0  0  0  0  0  0  0  0  0  0  0
   11.3536   -1.1076    0.0000 C   0  0  0  0  0  0  0  0  0  0  0  0
    6.0451    3.7789    0.0000 C   0  0  0  0  0  0  0  0  0  0  0  0
    7.9437    4.4075    0.0000 C   0  0  0  0  0  0  0  0  0  0  0  0
    9.1499   -1.7197    0.0000 C   0  0  2  0  0  0  0  0  0  0  0  0
    5.8427    2.7996    0.0000 C   0  0  0  0  0  0  0  0  0  0  0  0
    5.7008    5.2450    0.0000 C   0  0  2  0  0  0  0  0  0  0  0  0
    9.1499   -2.7197    0.0000 C   0  0  1  0  0  0  0  0  0  0  0  0
    8.2839   -3.2197    0.0000 C   0  0  2  0  0  0  0  0  0  0  0  0
    5.3865    6.1943    0.0000 C   0  0  1  0  0  0  0  0  0  0  0  0
    7.4179   -1.7197    0.0000 C   0  0  1  0  0  0  0  0  0  0  0  0
    4.8934    2.4852    0.0000 C   0  0  0  0  0  0  0  0  0  0  0  0
    7.4179   -2.7197    0.0000 C   0  0  1  0  0  0  0  0  0  0  0  0
    4.4072    6.3967    0.0000 C   0  0  2  0  0  0  0  0  0  0  0  0
    4.0565    4.7005    0.0000 C   0  0  1  0  0  0  0  0  0  0  0  0
    3.7422    5.6498    0.0000 C   0  0  1  0  0  0  0  0  0  0  0  0
    6.5519   -1.2197    0.0000 C   0  0  0  0  0  0  0  0  0  0  0  0
    4.6909    1.5059    0.0000 C   0  0  0  0  0  0  0  0  0  0  0  0
   10.0160   -4.2197    0.0000 C   0  0  2  0  0  0  0  0  0  0  0  0
    3.3916    3.9536    0.0000 C   0  0  0  0  0  0  0  0  0  0  0  0
   10.8820   -4.7197    0.0000 C   0  0  1  0  0  0  0  0  0  0  0  0
    3.7416    1.1916    0.0000 C   0  0  0  0  0  0  0  0  0  0  0  0
    5.4378    0.8410    0.0000 C   0  0  0  0  0  0  0  0  0  0  0  0
   10.8820   -5.7197    0.0000 C   0  0  2  0  0  0  0  0  0  0  0  0
    9.1499   -5.7197    0.0000 C   0  0  1  0  0  0  0  0  0  0  0  0
   10.0160   -6.2197    0.0000 C   0  0  1  0  0  0  0  0  0  0  0  0
    8.2839   -6.2197    0.0000 C   0  0  0  0  0  0  0  0  0  0  0  0
   10.7232    2.2830    0.0000 H   0  0  0  0  0  0  0  0  0  0  0  0
    8.1629    3.6877    0.0000 H   0  0  0  0  0  0  0  0  0  0  0  0
   10.9160   -0.5454    0.0000 H   0  0  0  0  0  0  0  0  0  0  0  0
    8.5063    0.4177    0.0000 H   0  0  0  0  0  0  0  0  0  0  0  0
    8.9001   -0.2767    0.0000 H   0  0  0  0  0  0  0  0  0  0  0  0
   10.5992    2.7442    0.0000 H   0  0  0  0  0  0  0  0  0  0  0  0
   10.1980    3.4329    0.0000 H   0  0  0  0  0  0  0  0  0  0  0  0
    6.4685    3.2725    0.0000 H   0  0  0  0  0  0  0  0  0  0  0  0
    9.6560    3.6582    0.0000 H   0  0  0  0  0  0  0  0  0  0  0  0
    6.7788    1.2231    0.0000 H   0  0  0  0  0  0  0  0  0  0  0  0
    7.5682    0.9685    0.0000 H   0  0  0  0  0  0  0  0  0  0  0  0
   10.5535   -0.5287    0.0000 H   0  0  0  0  0  0  0  0  0  0  0  0
    6.2658    2.7498    0.0000 H   0  0  0  0  0  0  0  0  0  0  0  0
    6.2690    1.9204    0.0000 H   0  0  0  0  0  0  0  0  0  0  0  0
   12.2167    2.3973    0.0000 H   0  0  0  0  0  0  0  0  0  0  0  0
   11.4186    2.3789    0.0000 H   0  0  0  0  0  0  0  0  0  0  0  0
    8.0116    0.9744    0.0000 H   0  0  0  0  0  0  0  0  0  0  0  0
    8.0914    0.1012    0.0000 H   0  0  0  0  0  0  0  0  0  0  0  0
    8.9645    0.1809    0.0000 H   0  0  0  0  0  0  0  0  0  0  0  0
    7.3382    1.1116    0.0000 H   0  0  0  0  0  0  0  0  0  0  0  0
    7.7118    0.3184    0.0000 H   0  0  0  0  0  0  0  0  0  0  0  0
    8.5050    0.6920    0.0000 H   0  0  0  0  0  0  0  0  0  0  0  0
   11.5124    2.3532    0.0000 H   0  0  0  0  0  0  0  0  0  0  0  0
   10.8852    2.9660    0.0000 H   0  0  0  0  0  0  0  0  0  0  0  0
   10.2725    2.3389    0.0000 H   0  0  0  0  0  0  0  0  0  0  0  0
   13.3250    0.6197    0.0000 H   0  0  0  0  0  0  0  0  0  0  0  0
   13.3906    1.2905    0.0000 H   0  0  0  0  0  0  0  0  0  0  0  0
   12.9808    1.9756    0.0000 H   0  0  0  0  0  0  0  0  0  0  0  0
   11.8166   -1.4176    0.0000 H   0  0  0  0  0  0  0  0  0  0  0  0
   12.6636   -1.6445    0.0000 H   0  0  0  0  0  0  0  0  0  0  0  0
   12.8905   -0.7976    0.0000 H   0  0  0  0  0  0  0  0  0  0  0  0
   10.8166   -0.7976    0.0000 H   0  0  0  0  0  0  0  0  0  0  0  0
   11.0436   -1.6445    0.0000 H   0  0  0  0  0  0  0  0  0  0  0  0
   11.8905   -1.4176    0.0000 H   0  0  0  0  0  0  0  0  0  0  0  0
    9.6521    4.6582    0.0000 H   0  0  0  0  0  0  0  0  0  0  0  0
    5.9554    4.3923    0.0000 H   0  0  0  0  0  0  0  0  0  0  0  0
    5.4254    3.7970    0.0000 H   0  0  0  0  0  0  0  0  0  0  0  0
    8.1386    3.8189    0.0000 H   0  0  0  0  0  0  0  0  0  0  0  0
    8.5323    4.6024    0.0000 H   0  0  0  0  0  0  0  0  0  0  0  0
    7.7489    4.9961    0.0000 H   0  0  0  0  0  0  0  0  0  0  0  0
    9.6869   -2.0297    0.0000 H   0  0  0  0  0  0  0  0  0  0  0  0
   14.1955    0.1254    0.0000 H   0  0  0  0  0  0  0  0  0  0  0  0
    5.9324    2.1861    0.0000 H   0  0  0  0  0  0  0  0  0  0  0  0
    6.4624    2.7814    0.0000 H   0  0  0  0  0  0  0  0  0  0  0  0
    5.8957    4.6564    0.0000 H   0  0  0  0  0  0  0  0  0  0  0  0
    9.1499   -3.3397    0.0000 H   0  0  0  0  0  0  0  0  0  0  0  0
    8.8208   -3.5297    0.0000 H   0  0  0  0  0  0  0  0  0  0  0  0
    5.9936    6.0688    0.0000 H   0  0  0  0  0  0  0  0  0  0  0  0
    7.4179   -1.0997    0.0000 H   0  0  0  0  0  0  0  0  0  0  0  0
    4.4303    2.8975    0.0000 H   0  0  0  0  0  0  0  0  0  0  0  0
    7.4179   -3.3397    0.0000 H   0  0  0  0  0  0  0  0  0  0  0  0
    4.8195    6.8598    0.0000 H   0  0  0  0  0  0  0  0  0  0  0  0
    4.2514    4.1120    0.0000 H   0  0  0  0  0  0  0  0  0  0  0  0
    3.5473    6.2384    0.0000 H   0  0  0  0  0  0  0  0  0  0  0  0
    6.9504   -0.7448    0.0000 H   0  0  0  0  0  0  0  0  0  0  0  0
    6.1533   -0.7448    0.0000 H   0  0  0  0  0  0  0  0  0  0  0  0
   10.5529   -3.9097    0.0000 H   0  0  0  0  0  0  0  0  0  0  0  0
    7.7470   -4.5297    0.0000 H   0  0  0  0  0  0  0  0  0  0  0  0
    5.8566    7.5297    0.0000 H   0  0  0  0  0  0  0  0  0  0  0  0
    6.5519   -3.8397    0.0000 H   0  0  0  0  0  0  0  0  0  0  0  0
    3.1625    3.3775    0.0000 H   0  0  0  0  0  0  0  0  0  0  0  0
    3.9192    3.6280    0.0000 H   0  0  0  0  0  0  0  0  0  0  0  0
    3.4857    7.4715    0.0000 H   0  0  0  0  0  0  0  0  0  0  0  0
   11.4189   -5.0297    0.0000 H   0  0  0  0  0  0  0  0  0  0  0  0
    3.5467    1.7802    0.0000 H   0  0  0  0  0  0  0  0  0  0  0  0
    3.1530    0.9967    0.0000 H   0  0  0  0  0  0  0  0  0  0  0  0
    3.9365    0.6031    0.0000 H   0  0  0  0  0  0  0  0  0  0  0  0
    5.0255    0.3779    0.0000 H   0  0  0  0  0  0  0  0  0  0  0  0
    5.9008    0.4287    0.0000 H   0  0  0  0  0  0  0  0  0  0  0  0
    5.8501    1.3040    0.0000 H   0  0  0  0  0  0  0  0  0  0  0  0
    2.5680    6.4409    0.0000 H   0  0  0  0  0  0  0  0  0  0  0  0
    5.1489   -1.4097    0.0000 H   0  0  0  0  0  0  0  0  0  0  0  0
   11.4189   -5.4097    0.0000 H   0  0  0  0  0  0  0  0  0  0  0  0
    8.6130   -5.4097    0.0000 H   0  0  0  0  0  0  0  0  0  0  0  0
   10.5529   -6.5297    0.0000 H   0  0  0  0  0  0  0  0  0  0  0  0
    2.0000    3.6930    0.0000 H   0  0  0  0  0  0  0  0  0  0  0  0
   12.2849   -4.5297    0.0000 H   0  0  0  0  0  0  0  0  0  0  0  0
    7.8854   -6.6947    0.0000 H   0  0  0  0  0  0  0  0  0  0  0  0
    8.6824   -6.6947    0.0000 H   0  0  0  0  0  0  0  0  0  0  0  0
   11.7480   -6.8397    0.0000 H   0  0  0  0  0  0  0  0  0  0  0  0
    9.4790   -7.5297    0.0000 H   0  0  0  0  0  0  0  0  0  0  0  0
    6.8809   -6.0297    0.0000 H   0  0  0  0  0  0  0  0  0  0  0  0
 31  1  1  1  0  0  0
 45  1  1  1  0  0  0
 29  2  1  6  0  0  0
  2102  1  0  0  0  0
 39  3  1  6  0  0  0
 47  3  1  6  0  0  0
 38  4  1  6  0  0  0
  4109  1  0  0  0  0
  5 45  1  0  0  0  0
  5 51  1  0  0  0  0
  6 47  1  0  0  0  0
  6 55  1  0  0  0  0
 48  7  1  6  0  0  0
 59  7  1  1  0  0  0
 49  8  1  1  0  0  0
  8125  1  0  0  0  0
 50  9  1  1  0  0  0
  9126  1  0  0  0  0
 53 10  1  6  0  0  0
 10127  1  0  0  0  0
 54 11  1  6  0  0  0
 11130  1  0  0  0  0
 56 12  1  1  0  0  0
 12138  1  0  0  0  0
 13 59  1  0  0  0  0
 13 65  1  0  0  0  0
 14 57  1  0  0  0  0
 14139  1  0  0  0  0
 15 60  1  0  0  0  0
 15143  1  0  0  0  0
 61 16  1  6  0  0  0
 16144  1  0  0  0  0
 64 17  1  1  0  0  0
 17147  1  0  0  0  0
 66 18  1  6  0  0  0
 18148  1  0  0  0  0
 19 67  1  0  0  0  0
 19149  1  0  0  0  0
 20 21  1  0  0  0  0
 20 22  1  0  0  0  0
 20 26  1  0  0  0  0
 20 35  1  6  0  0  0
 21 24  1  0  0  0  0
 21 30  1  0  0  0  0
 21 36  1  1  0  0  0
 22 23  1  0  0  0  0
 22 27  1  0  0  0  0
 22 68  1  1  0  0  0
 23 25  1  0  0  0  0
 23 34  1  0  0  0  0
 23 37  1  6  0  0  0
 24 28  1  0  0  0  0
 24 29  1  0  0  0  0
 24 69  1  6  0  0  0
 25 31  1  0  0  0  0
 25 32  1  0  0  0  0
 25 70  1  1  0  0  0
 26 31  1  0  0  0  0
 26 71  1  0  0  0  0
 26 72  1  0  0  0  0
 27 29  1  0  0  0  0
 27 73  1  0  0  0  0
 27 74  1  0  0  0  0
 28 33  1  0  0  0  0
 28 39  1  0  0  0  0
 28 75  1  1  0  0  0
 29 76  1  0  0  0  0
 30 33  1  0  0  0  0
 30 77  1  0  0  0  0
 30 78  1  0  0  0  0
 31 79  1  0  0  0  0
 32 38  1  0  0  0  0
 32 41  1  0  0  0  0
 32 42  1  0  0  0  0
 33 80  1  0  0  0  0
 33 81  1  0  0  0  0
 34 40  1  0  0  0  0
 34 82  1  0  0  0  0
 34 83  1  0  0  0  0
 35 84  1  0  0  0  0
 35 85  1  0  0  0  0
 35 86  1  0  0  0  0
 36 87  1  0  0  0  0
 36 88  1  0  0  0  0
 36 89  1  0  0  0  0
 37 90  1  0  0  0  0
 37 91  1  0  0  0  0
 37 92  1  0  0  0  0
 38 40  1  0  0  0  0
 38 93  1  0  0  0  0
 39 43  1  0  0  0  0
 39 44  1  0  0  0  0
 40 94  1  0  0  0  0
 40 95  1  0  0  0  0
 41 96  1  0  0  0  0
 41 97  1  0  0  0  0
 41 98  1  0  0  0  0
 42 99  1  0  0  0  0
 42100  1  0  0  0  0
 42101  1  0  0  0  0
 43 46  1  0  0  0  0
 43103  1  0  0  0  0
 43104  1  0  0  0  0
 44105  1  0  0  0  0
 44106  1  0  0  0  0
 44107  1  0  0  0  0
 45 48  1  0  0  0  0
 45108  1  0  0  0  0
 46 52  1  0  0  0  0
 46110  1  0  0  0  0
 46111  1  0  0  0  0
 47 50  1  0  0  0  0
 47112  1  0  0  0  0
 48 49  1  0  0  0  0
 48113  1  0  0  0  0
 49 53  1  0  0  0  0
 49114  1  0  0  0  0
 50 54  1  0  0  0  0
 50115  1  0  0  0  0
 51 53  1  0  0  0  0
 51 57  1  1  0  0  0
 51116  1  0  0  0  0
 52 58  2  0  0  0  0
 52117  1  0  0  0  0
 53118  1  0  0  0  0
 54 56  1  0  0  0  0
 54119  1  0  0  0  0
 55 56  1  0  0  0  0
 55 60  1  6  0  0  0
 55120  1  0  0  0  0
 56121  1  0  0  0  0
 57122  1  0  0  0  0
 57123  1  0  0  0  0
 58 62  1  0  0  0  0
 58 63  1  0  0  0  0
 59 61  1  0  0  0  0
 59124  1  0  0  0  0
 60128  1  0  0  0  0
 60129  1  0  0  0  0
 61 64  1  0  0  0  0
 61131  1  0  0  0  0
 62132  1  0  0  0  0
 62133  1  0  0  0  0
 62134  1  0  0  0  0
 63135  1  0  0  0  0
 63136  1  0  0  0  0
 63137  1  0  0  0  0
 64 66  1  0  0  0  0
 64140  1  0  0  0  0
 65 66  1  0  0  0  0
 65 67  1  1  0  0  0
 65141  1  0  0  0  0
 66142  1  0  0  0  0
 67145  1  0  0  0  0
 67146  1  0  0  0  0
M  END
> <PUBCHEM_COMPOUND_CID>
24721561

> <PUBCHEM_COMPOUND_CANONICALIZED>
1

> <PUBCHEM_CACTVS_COMPLEXITY>
1720

> <PUBCHEM_CACTVS_HBOND_ACCEPTOR>
19

> <PUBCHEM_CACTVS_HBOND_DONOR>
13

> <PUBCHEM_CACTVS_ROTATABLE_BOND>
13

> <PUBCHEM_CACTVS_SUBSKEYS>
AAADcfB8PgAAAAAAAAAAAAAAAAAAAYAAAAA0aNECAAAAAGDAAAAAGgAACAAAD1SwgAMCCAAABgCAAiBCAAAAAAAgAAAACAAAAAgREAIAAQAiQAAFgAAPAAPA4PwPgAAAAAAAAADAAAYAADAAAQAACAAAAA==

> <PUBCHEM_IUPAC_OPENEYE_NAME>
(2S,3R,4S,5S,6R)-2-[(2R,3R,4S,5S,6R)-2-[[(3S,5R,6S,8R,9R,10R,12R,13R,14R,17S)-17-[(1S)-1,5-dimethyl-1-[(2S,3R,4S,5S,6R)-3,4,5-trihydroxy-6-(hydroxymethyl)tetrahydropyran-2-yl]oxy-hex-4-enyl]-3,12-dihydroxy-4,4,8,10,14-pentamethyl-2,3,5,6,7,9,11,12,13,15,16,17-dodecahydro-1H-cyclopenta[a]phenanthren-6-yl]oxy]-4,5-dihydroxy-6-(hydroxymethyl)tetrahydropyran-3-yl]oxy-6-(hydroxymethyl)tetrahydropyran-3,4,5-triol

> <PUBCHEM_IUPAC_CAS_NAME>
(2S,3R,4S,5S,6R)-2-[[(2R,3R,4S,5S,6R)-2-[[(3S,5R,6S,8R,9R,10R,12R,13R,14R,17S)-3,12-dihydroxy-4,4,8,10,14-pentamethyl-17-[(2S)-6-methyl-2-[[(2S,3R,4S,5S,6R)-3,4,5-trihydroxy-6-(hydroxymethyl)-2-oxanyl]oxy]hept-5-en-2-yl]-2,3,5,6,7,9,11,12,13,15,16,17-dodecahydro-1H-cyclopenta[a]phenanthren-6-yl]oxy]-4,5-dihydroxy-6-(hydroxymethyl)-3-oxanyl]oxy]-6-(hydroxymethyl)oxane-3,4,5-triol

> <PUBCHEM_IUPAC_NAME_MARKUP>
(2<I>S</I>,3<I>R</I>,4<I>S</I>,5<I>S</I>,6<I>R</I>)-2-[(2<I>R</I>,3<I>R</I>,4<I>S</I>,5<I>S</I>,6<I>R</I>)-2-[[(3<I>S</I>,5<I>R</I>,6<I>S</I>,8<I>R</I>,9<I>R</I>,10<I>R</I>,12<I>R</I>,13<I>R</I>,14<I>R</I>,17<I>S</I>)-3,12-dihydroxy-4,4,8,10,14-pentamethyl-17-[(2<I>S</I>)-6-methyl-2-[(2<I>S</I>,3<I>R</I>,4<I>S</I>,5<I>S</I>,6<I>R</I>)-3,4,5-trihydroxy-6-(hydroxymethyl)oxan-2-yl]oxyhept-5-en-2-yl]-2,3,5,6,7,9,11,12,13,15,16,17-dodecahydro-1<I>H</I>-cyclopenta[a]phenanthren-6-yl]oxy]-4,5-dihydroxy-6-(hydroxymethyl)oxan-3-yl]oxy-6-(hydroxymethyl)oxane-3,4,5-triol

> <PUBCHEM_IUPAC_NAME>
(2S,3R,4S,5S,6R)-2-[(2R,3R,4S,5S,6R)-2-[[(3S,5R,6S,8R,9R,10R,12R,13R,14R,17S)-3,12-dihydroxy-4,4,8,10,14-pentamethyl-17-[(2S)-6-methyl-2-[(2S,3R,4S,5S,6R)-3,4,5-trihydroxy-6-(hydroxymethyl)oxan-2-yl]oxyhept-5-en-2-yl]-2,3,5,6,7,9,11,12,13,15,16,17-dodecahydro-1H-cyclopenta[a]phenanthren-6-yl]oxy]-4,5-dihydroxy-6-(hydroxymethyl)oxan-3-yl]oxy-6-(hydroxymethyl)oxane-3,4,5-triol

> <PUBCHEM_IUPAC_SYSTEMATIC_NAME>
(2R,3S,4S,5R,6S)-2-(hydroxymethyl)-6-[(2R,3R,4S,5S,6R)-6-(hydroxymethyl)-2-[[(3S,5R,6S,8R,9R,10R,12R,13R,14R,17S)-17-[(2S)-2-[(2S,3R,4S,5S,6R)-6-(hydroxymethyl)-3,4,5-tris(oxidanyl)oxan-2-yl]oxy-6-methyl-hept-5-en-2-yl]-4,4,8,10,14-pentamethyl-3,12-bis(oxidanyl)-2,3,5,6,7,9,11,12,13,15,16,17-dodecahydro-1H-cyclopenta[a]phenanthren-6-yl]oxy]-4,5-bis(oxidanyl)oxan-3-yl]oxy-oxane-3,4,5-triol

> <PUBCHEM_IUPAC_TRADITIONAL_NAME>
(2S,3R,4S,5S,6R)-2-[(2R,3R,4S,5S,6R)-2-[[(3S,5R,6S,8R,9R,10R,12R,13R,14R,17S)-17-[(1S)-1,5-dimethyl-1-[(2S,3R,4S,5S,6R)-3,4,5-trihydroxy-6-methylol-tetrahydropyran-2-yl]oxy-hex-4-enyl]-3,12-dihydroxy-4,4,8,10,14-pentamethyl-2,3,5,6,7,9,11,12,13,15,16,17-dodecahydro-1H-cyclopenta[a]phenanthren-6-yl]oxy]-4,5-dihydroxy-6-methylol-tetrahydropyran-3-yl]oxy-6-methylol-tetrahydropyran-3,4,5-triol

> <PUBCHEM_IUPAC_INCHI>
InChI=1S/C48H82O19/c1-21(2)10-9-13-48(8,67-42-38(61)35(58)32(55)26(19-50)64-42)22-11-15-46(6)30(22)23(52)16-28-45(5)14-12-29(53)44(3,4)40(45)24(17-47(28,46)7)62-43-39(36(59)33(56)27(20-51)65-43)66-41-37(60)34(57)31(54)25(18-49)63-41/h10,22-43,49-61H,9,11-20H2,1-8H3/t22-,23+,24-,25+,26+,27+,28+,29-,30-,31+,32+,33+,34-,35-,36-,37+,38+,39+,40-,41-,42-,43+,45+,46+,47+,48-/m0/s1

> <PUBCHEM_IUPAC_INCHIKEY>
FBFMBWCLBGQEBU-RXMALORBSA-N

> <PUBCHEM_XLOGP3_AA>
1.1

> <PUBCHEM_EXACT_MASS>
962.54503

> <PUBCHEM_MOLECULAR_FORMULA>
C48H82O19

> <PUBCHEM_MOLECULAR_WEIGHT>
963.2

> <PUBCHEM_OPENEYE_CAN_SMILES>
CC(=CCCC(C)(C1CCC2(C1C(CC3C2(CC(C4C3(CCC(C4(C)C)O)C)OC5C(C(C(C(O5)CO)O)O)OC6C(C(C(C(O6)CO)O)O)O)C)O)C)OC7C(C(C(C(O7)CO)O)O)O)C

> <PUBCHEM_OPENEYE_ISO_SMILES>
CC(=CCC[C@@](C)([C@H]1CC[C@@]2([C@@H]1[C@@H](C[C@H]3[C@]2(C[C@@H]([C@@H]4[C@@]3(CC[C@@H](C4(C)C)O)C)O[C@H]5[C@@H]([C@H]([C@@H]([C@H](O5)CO)O)O)O[C@H]6[C@@H]([C@H]([C@@H]([C@H](O6)CO)O)O)O)C)O)C)O[C@H]7[C@@H]([C@H]([C@@H]([C@H](O7)CO)O)O)O)C

> <PUBCHEM_CACTVS_TPSA>
318

> <PUBCHEM_MONOISOTOPIC_WEIGHT>
962.54503

> <PUBCHEM_TOTAL_CHARGE>
0

> <PUBCHEM_HEAVY_ATOM_COUNT>
67

> <PUBCHEM_ATOM_DEF_STEREO_COUNT>
26

> <PUBCHEM_ATOM_UDEF_STEREO_COUNT>
0

> <PUBCHEM_BOND_DEF_STEREO_COUNT>
0

> <PUBCHEM_BOND_UDEF_STEREO_COUNT>
0

> <PUBCHEM_ISOTOPIC_ATOM_COUNT>
0

> <PUBCHEM_COMPONENT_COUNT>
1

> <PUBCHEM_CACTVS_TAUTO_COUNT>
-1

> <PUBCHEM_COORDINATE_TYPE>
1
5
255

> <PUBCHEM_BONDANNOTATIONS>
31  1  5
45  1  5
53  10  6
54  11  6
56  12  5
61  16  6
64  17  5
66  18  6
29  2  6
20  35  6
21  36  5
22  68  5
23  37  6
24  69  6
25  70  5
28  75  5
39  3  6
47  3  6
38  4  6
51  57  5
55  60  6
65  67  5
48  7  6
59  7  5
49  8  5
50  9  5

$$$$
