44144329
  -OEChem-09132016322D

128134  0     1  0  0  0  0  0999 V2000
    6.8671   -1.0590    0.0000 O   0  0  0  0  0  0  0  0  0  0  0  0
    5.9675    4.5068    0.0000 O   0  0  0  0  0  0  0  0  0  0  0  0
    4.7948    4.5682    0.0000 O   0  0  0  0  0  0  0  0  0  0  0  0
   10.5121   -0.0280    0.0000 O   0  0  0  0  0  0  0  0  0  0  0  0
    5.1350   -1.0590    0.0000 O   0  0  0  0  0  0  0  0  0  0  0  0
    6.4007    6.7528    0.0000 O   0  0  0  0  0  0  0  0  0  0  0  0
    6.8671   -3.0590    0.0000 O   0  0  0  0  0  0  0  0  0  0  0  0
    5.1350   -4.0590    0.0000 O   0  0  0  0  0  0  0  0  0  0  0  0
    3.4030   -3.0590    0.0000 O   0  0  0  0  0  0  0  0  0  0  0  0
    6.0010   -4.5590    0.0000 O   0  0  0  0  0  0  0  0  0  0  0  0
    2.5369   -1.5590    0.0000 O   0  0  0  0  0  0  0  0  0  0  0  0
    8.5991   -4.0590    0.0000 O   0  0  0  0  0  0  0  0  0  0  0  0
    8.5991   -6.0590    0.0000 O   0  0  0  0  0  0  0  0  0  0  0  0
    6.8671   -7.0590    0.0000 O   0  0  0  0  0  0  0  0  0  0  0  0
    5.9790    1.5068    0.0000 C   0  0  1  0  0  0  0  0  0  0  0  0
    5.1111    2.0035    0.0000 C   0  0  1  0  0  0  0  0  0  0  0  0
    6.8431    2.0102    0.0000 C   0  0  3  0  0  0  0  0  0  0  0  0
    7.7551    1.5068    0.0000 C   0  0  2  0  0  0  0  0  0  0  0  0
    5.1072    3.0035    0.0000 C   0  0  3  0  0  0  0  0  0  0  0  0
    7.7671    0.4653    0.0000 C   0  0  3  0  0  0  0  0  0  0  0  0
    4.1598    3.3046    0.0000 C   0  0  3  0  0  0  0  0  0  0  0  0
    5.9670    0.4653    0.0000 C   0  0  0  0  0  0  0  0  0  0  0  0
    6.8393    3.0102    0.0000 C   0  0  0  0  0  0  0  0  0  0  0  0
    4.1661    1.6951    0.0000 C   0  0  0  0  0  0  0  0  0  0  0  0
    5.9713    3.5068    0.0000 C   0  0  1  0  0  0  0  0  0  0  0  0
    6.8671   -0.0590    0.0000 C   0  0  2  0  0  0  0  0  0  0  0  0
    3.5794    2.4976    0.0000 C   0  0  0  0  0  0  0  0  0  0  0  0
    8.7047   -0.0808    0.0000 C   0  0  0  0  0  0  0  0  0  0  0  0
    8.6797    2.0745    0.0000 C   0  0  0  0  0  0  0  0  0  0  0  0
    5.3392    0.7383    0.0000 C   0  0  0  0  0  0  0  0  0  0  0  0
    4.7727    1.0625    0.0000 C   0  0  0  0  0  0  0  0  0  0  0  0
    3.8455    4.2539    0.0000 C   0  0  2  0  0  0  0  0  0  0  0  0
    7.7435    2.5068    0.0000 C   0  0  0  0  0  0  0  0  0  0  0  0
    9.6422    0.4653    0.0000 C   0  0  2  0  0  0  0  0  0  0  0  0
    9.6296    1.5502    0.0000 C   0  0  0  0  0  0  0  0  0  0  0  0
    3.2532    5.0596    0.0000 C   0  0  0  0  0  0  0  0  0  0  0  0
    9.2047   -0.9469    0.0000 C   0  0  0  0  0  0  0  0  0  0  0  0
    8.2047   -0.9469    0.0000 C   0  0  0  0  0  0  0  0  0  0  0  0
    3.0398    3.6616    0.0000 C   0  0  0  0  0  0  0  0  0  0  0  0
    3.8365    5.8719    0.0000 C   0  0  0  0  0  0  0  0  0  0  0  0
    4.7893    5.5682    0.0000 C   0  0  1  0  0  0  0  0  0  0  0  0
    6.0010   -1.5590    0.0000 C   0  0  2  0  0  0  0  0  0  0  0  0
    5.5950    6.1605    0.0000 C   0  0  0  0  0  0  0  0  0  0  0  0
    6.0010   -2.5590    0.0000 C   0  0  1  0  0  0  0  0  0  0  0  0
    5.1350   -3.0590    0.0000 C   0  0  2  0  0  0  0  0  0  0  0  0
    5.0027    6.9662    0.0000 C   0  0  0  0  0  0  0  0  0  0  0  0
    6.1873    5.3548    0.0000 C   0  0  0  0  0  0  0  0  0  0  0  0
    4.2690   -1.5590    0.0000 C   0  0  1  0  0  0  0  0  0  0  0  0
    4.2690   -2.5590    0.0000 C   0  0  1  0  0  0  0  0  0  0  0  0
    3.4030   -1.0590    0.0000 C   0  0  0  0  0  0  0  0  0  0  0  0
    6.8671   -4.0590    0.0000 C   0  0  2  0  0  0  0  0  0  0  0  0
    7.7331   -4.5590    0.0000 C   0  0  1  0  0  0  0  0  0  0  0  0
    7.7331   -5.5590    0.0000 C   0  0  1  0  0  0  0  0  0  0  0  0
    6.0010   -5.5590    0.0000 C   0  0  2  0  0  0  0  0  0  0  0  0
    6.8671   -6.0590    0.0000 C   0  0  2  0  0  0  0  0  0  0  0  0
    5.1350   -6.0590    0.0000 C   0  0  0  0  0  0  0  0  0  0  0  0
    7.3764    2.3264    0.0000 H   0  0  0  0  0  0  0  0  0  0  0  0
    5.0393    3.6198    0.0000 H   0  0  0  0  0  0  0  0  0  0  0  0
    7.7671   -0.1547    0.0000 H   0  0  0  0  0  0  0  0  0  0  0  0
    3.5470    3.3984    0.0000 H   0  0  0  0  0  0  0  0  0  0  0  0
    5.3574    0.5784    0.0000 H   0  0  0  0  0  0  0  0  0  0  0  0
    5.7512   -0.1160    0.0000 H   0  0  0  0  0  0  0  0  0  0  0  0
    7.4503    2.9049    0.0000 H   0  0  0  0  0  0  0  0  0  0  0  0
    7.0491    3.5936    0.0000 H   0  0  0  0  0  0  0  0  0  0  0  0
    3.6299    1.3838    0.0000 H   0  0  0  0  0  0  0  0  0  0  0  0
    4.4193    1.1292    0.0000 H   0  0  0  0  0  0  0  0  0  0  0  0
    6.5071    3.8189    0.0000 H   0  0  0  0  0  0  0  0  0  0  0  0
    7.4046   -0.3680    0.0000 H   0  0  0  0  0  0  0  0  0  0  0  0
    3.1169    2.9105    0.0000 H   0  0  0  0  0  0  0  0  0  0  0  0
    3.1201    2.0811    0.0000 H   0  0  0  0  0  0  0  0  0  0  0  0
    9.0678    2.5580    0.0000 H   0  0  0  0  0  0  0  0  0  0  0  0
    8.2697    2.5396    0.0000 H   0  0  0  0  0  0  0  0  0  0  0  0
    4.8627    1.1350    0.0000 H   0  0  0  0  0  0  0  0  0  0  0  0
    4.9425    0.2619    0.0000 H   0  0  0  0  0  0  0  0  0  0  0  0
    5.8156    0.3416    0.0000 H   0  0  0  0  0  0  0  0  0  0  0  0
    4.1893    1.2723    0.0000 H   0  0  0  0  0  0  0  0  0  0  0  0
    4.5629    0.4791    0.0000 H   0  0  0  0  0  0  0  0  0  0  0  0
    5.3561    0.8527    0.0000 H   0  0  0  0  0  0  0  0  0  0  0  0
    8.3635    2.5139    0.0000 H   0  0  0  0  0  0  0  0  0  0  0  0
    7.7364    3.1267    0.0000 H   0  0  0  0  0  0  0  0  0  0  0  0
    7.1236    2.4996    0.0000 H   0  0  0  0  0  0  0  0  0  0  0  0
   10.1761    0.7804    0.0000 H   0  0  0  0  0  0  0  0  0  0  0  0
   10.2417    1.4512    0.0000 H   0  0  0  0  0  0  0  0  0  0  0  0
    9.8319    2.1363    0.0000 H   0  0  0  0  0  0  0  0  0  0  0  0
    2.7902    5.4719    0.0000 H   0  0  0  0  0  0  0  0  0  0  0  0
    2.7948    4.6422    0.0000 H   0  0  0  0  0  0  0  0  0  0  0  0
    8.6677   -1.2569    0.0000 H   0  0  0  0  0  0  0  0  0  0  0  0
    9.5147   -1.4838    0.0000 H   0  0  0  0  0  0  0  0  0  0  0  0
    9.7416   -0.6369    0.0000 H   0  0  0  0  0  0  0  0  0  0  0  0
    7.6677   -0.6369    0.0000 H   0  0  0  0  0  0  0  0  0  0  0  0
    7.8947   -1.4838    0.0000 H   0  0  0  0  0  0  0  0  0  0  0  0
    8.7416   -1.2569    0.0000 H   0  0  0  0  0  0  0  0  0  0  0  0
    6.5032    4.8189    0.0000 H   0  0  0  0  0  0  0  0  0  0  0  0
    2.6726    4.1611    0.0000 H   0  0  0  0  0  0  0  0  0  0  0  0
    2.5403    3.2944    0.0000 H   0  0  0  0  0  0  0  0  0  0  0  0
    3.4070    3.1620    0.0000 H   0  0  0  0  0  0  0  0  0  0  0  0
    4.0855    6.4397    0.0000 H   0  0  0  0  0  0  0  0  0  0  0  0
    3.2978    6.1789    0.0000 H   0  0  0  0  0  0  0  0  0  0  0  0
    5.5488    5.1865    0.0000 H   0  0  0  0  0  0  0  0  0  0  0  0
    6.5380   -1.8690    0.0000 H   0  0  0  0  0  0  0  0  0  0  0  0
   11.0466    0.2861    0.0000 H   0  0  0  0  0  0  0  0  0  0  0  0
    6.0010   -3.1790    0.0000 H   0  0  0  0  0  0  0  0  0  0  0  0
    4.5981   -3.3690    0.0000 H   0  0  0  0  0  0  0  0  0  0  0  0
    5.5022    7.3334    0.0000 H   0  0  0  0  0  0  0  0  0  0  0  0
    4.6355    7.4658    0.0000 H   0  0  0  0  0  0  0  0  0  0  0  0
    4.5031    6.5990    0.0000 H   0  0  0  0  0  0  0  0  0  0  0  0
    5.6877    4.9875    0.0000 H   0  0  0  0  0  0  0  0  0  0  0  0
    6.5545    4.8552    0.0000 H   0  0  0  0  0  0  0  0  0  0  0  0
    6.6868    5.7220    0.0000 H   0  0  0  0  0  0  0  0  0  0  0  0
    4.2690   -0.9390    0.0000 H   0  0  0  0  0  0  0  0  0  0  0  0
    4.2690   -3.1790    0.0000 H   0  0  0  0  0  0  0  0  0  0  0  0
    6.3324    7.3690    0.0000 H   0  0  0  0  0  0  0  0  0  0  0  0
    3.8015   -0.5841    0.0000 H   0  0  0  0  0  0  0  0  0  0  0  0
    3.0044   -0.5841    0.0000 H   0  0  0  0  0  0  0  0  0  0  0  0
    7.4040   -3.7490    0.0000 H   0  0  0  0  0  0  0  0  0  0  0  0
    4.5981   -4.3690    0.0000 H   0  0  0  0  0  0  0  0  0  0  0  0
    3.4030   -3.6790    0.0000 H   0  0  0  0  0  0  0  0  0  0  0  0
    8.2700   -4.8690    0.0000 H   0  0  0  0  0  0  0  0  0  0  0  0
    2.0000   -1.2490    0.0000 H   0  0  0  0  0  0  0  0  0  0  0  0
    7.7331   -6.1790    0.0000 H   0  0  0  0  0  0  0  0  0  0  0  0
    5.4641   -5.2490    0.0000 H   0  0  0  0  0  0  0  0  0  0  0  0
    7.4040   -6.3690    0.0000 H   0  0  0  0  0  0  0  0  0  0  0  0
    9.1360   -4.3690    0.0000 H   0  0  0  0  0  0  0  0  0  0  0  0
    4.8250   -5.5221    0.0000 H   0  0  0  0  0  0  0  0  0  0  0  0
    4.5981   -6.3690    0.0000 H   0  0  0  0  0  0  0  0  0  0  0  0
    5.4450   -6.5960    0.0000 H   0  0  0  0  0  0  0  0  0  0  0  0
    8.5991   -6.6790    0.0000 H   0  0  0  0  0  0  0  0  0  0  0  0
    6.3301   -7.3690    0.0000 H   0  0  0  0  0  0  0  0  0  0  0  0
 26  1  1  1  0  0  0
 42  1  1  1  0  0  0
 25  2  1  6  0  0  0
  2 93  1  0  0  0  0
  3 32  1  0  0  0  0
  3 41  1  0  0  0  0
 34  4  1  6  0  0  0
  4101  1  0  0  0  0
  5 42  1  0  0  0  0
  5 48  1  0  0  0  0
  6 43  1  0  0  0  0
  6112  1  0  0  0  0
 44  7  1  6  0  0  0
 51  7  1  1  0  0  0
 45  8  1  1  0  0  0
  8116  1  0  0  0  0
 49  9  1  6  0  0  0
  9117  1  0  0  0  0
 10 51  1  0  0  0  0
 10 54  1  0  0  0  0
 11 50  1  0  0  0  0
 11119  1  0  0  0  0
 52 12  1  6  0  0  0
 12123  1  0  0  0  0
 53 13  1  6  0  0  0
 13127  1  0  0  0  0
 55 14  1  1  0  0  0
 14128  1  0  0  0  0
 15 16  1  0  0  0  0
 15 17  1  0  0  0  0
 15 22  1  0  0  0  0
 15 30  1  6  0  0  0
 16 19  1  0  0  0  0
 16 24  1  0  0  0  0
 16 31  1  1  0  0  0
 17 18  1  0  0  0  0
 17 23  1  0  0  0  0
 17 57  1  0  0  0  0
 18 20  1  0  0  0  0
 18 29  1  0  0  0  0
 18 33  1  6  0  0  0
 19 21  1  0  0  0  0
 19 25  1  0  0  0  0
 19 58  1  0  0  0  0
 20 26  1  0  0  0  0
 20 28  1  0  0  0  0
 20 59  1  0  0  0  0
 21 27  1  0  0  0  0
 21 32  1  0  0  0  0
 21 60  1  0  0  0  0
 22 26  1  0  0  0  0
 22 61  1  0  0  0  0
 22 62  1  0  0  0  0
 23 25  1  0  0  0  0
 23 63  1  0  0  0  0
 23 64  1  0  0  0  0
 24 27  1  0  0  0  0
 24 65  1  0  0  0  0
 24 66  1  0  0  0  0
 25 67  1  0  0  0  0
 26 68  1  0  0  0  0
 27 69  1  0  0  0  0
 27 70  1  0  0  0  0
 28 34  1  0  0  0  0
 28 37  1  0  0  0  0
 28 38  1  0  0  0  0
 29 35  1  0  0  0  0
 29 71  1  0  0  0  0
 29 72  1  0  0  0  0
 30 73  1  0  0  0  0
 30 74  1  0  0  0  0
 30 75  1  0  0  0  0
 31 76  1  0  0  0  0
 31 77  1  0  0  0  0
 31 78  1  0  0  0  0
 32 36  1  0  0  0  0
 32 39  1  1  0  0  0
 33 79  1  0  0  0  0
 33 80  1  0  0  0  0
 33 81  1  0  0  0  0
 34 35  1  0  0  0  0
 34 82  1  0  0  0  0
 35 83  1  0  0  0  0
 35 84  1  0  0  0  0
 36 40  1  0  0  0  0
 36 85  1  0  0  0  0
 36 86  1  0  0  0  0
 37 87  1  0  0  0  0
 37 88  1  0  0  0  0
 37 89  1  0  0  0  0
 38 90  1  0  0  0  0
 38 91  1  0  0  0  0
 38 92  1  0  0  0  0
 39 94  1  0  0  0  0
 39 95  1  0  0  0  0
 39 96  1  0  0  0  0
 40 41  1  0  0  0  0
 40 97  1  0  0  0  0
 40 98  1  0  0  0  0
 41 43  1  0  0  0  0
 41 99  1  6  0  0  0
 42 44  1  0  0  0  0
 42100  1  0  0  0  0
 43 46  1  0  0  0  0
 43 47  1  0  0  0  0
 44 45  1  0  0  0  0
 44102  1  0  0  0  0
 45 49  1  0  0  0  0
 45103  1  0  0  0  0
 46104  1  0  0  0  0
 46105  1  0  0  0  0
 46106  1  0  0  0  0
 47107  1  0  0  0  0
 47108  1  0  0  0  0
 47109  1  0  0  0  0
 48 49  1  0  0  0  0
 48 50  1  1  0  0  0
 48110  1  0  0  0  0
 49111  1  0  0  0  0
 50113  1  0  0  0  0
 50114  1  0  0  0  0
 51 52  1  0  0  0  0
 51115  1  0  0  0  0
 52 53  1  0  0  0  0
 52118  1  0  0  0  0
 53 55  1  0  0  0  0
 53120  1  0  0  0  0
 54 55  1  0  0  0  0
 54 56  1  6  0  0  0
 54121  1  0  0  0  0
 55122  1  0  0  0  0
 56124  1  0  0  0  0
 56125  1  0  0  0  0
 56126  1  0  0  0  0
M  END
> <PUBCHEM_COMPOUND_CID>
44144329

> <PUBCHEM_COMPOUND_CANONICALIZED>
1

> <PUBCHEM_CACTVS_COMPLEXITY>
1430

> <PUBCHEM_CACTVS_HBOND_ACCEPTOR>
14

> <PUBCHEM_CACTVS_HBOND_DONOR>
9

> <PUBCHEM_CACTVS_ROTATABLE_BOND>
7

> <PUBCHEM_CACTVS_SUBSKEYS>
AAADcfB8PAAAAAAAAAAAAAAAAAAAAaIAAAA0aMECAAAAAGDAAAAAGgAACAAAD1SwgAMCCAAABgAAAAAAAAAAAAAAAAAAAAAAAAAREAIAAAAiQAAFAAAHAAHA4PwPgAAAAAAAAADAAAYAADAAAQAACAAAAA==

> <PUBCHEM_IUPAC_OPENEYE_NAME>
(2S,3R,4R,5R,6S)-2-[(2R,3R,4S,5S,6R)-2-[[(3S,6S,8R,10R,12R,14R)-3,12-dihydroxy-17-[(2S,5S)-5-(1-hydroxy-1-methyl-ethyl)-2-methyl-tetrahydrofuran-2-yl]-4,4,8,10,14-pentamethyl-2,3,5,6,7,9,11,12,13,15,16,17-dodecahydro-1H-cyclopenta[a]phenanthren-6-yl]oxy]-4,5-dihydroxy-6-(hydroxymethyl)tetrahydropyran-3-yl]oxy-6-methyl-tetrahydropyran-3,4,5-triol

> <PUBCHEM_IUPAC_CAS_NAME>
(2S,3R,4R,5R,6S)-2-[[(2R,3R,4S,5S,6R)-2-[[(3S,6S,8R,10R,12R,14R)-3,12-dihydroxy-17-[(2S,5S)-5-(2-hydroxypropan-2-yl)-2-methyl-2-oxolanyl]-4,4,8,10,14-pentamethyl-2,3,5,6,7,9,11,12,13,15,16,17-dodecahydro-1H-cyclopenta[a]phenanthren-6-yl]oxy]-4,5-dihydroxy-6-(hydroxymethyl)-3-oxanyl]oxy]-6-methyloxane-3,4,5-triol

> <PUBCHEM_IUPAC_NAME_MARKUP>
(2<I>S</I>,3<I>R</I>,4<I>R</I>,5<I>R</I>,6<I>S</I>)-2-[(2<I>R</I>,3<I>R</I>,4<I>S</I>,5<I>S</I>,6<I>R</I>)-2-[[(3<I>S</I>,6<I>S</I>,8<I>R</I>,10<I>R</I>,12<I>R</I>,14<I>R</I>)-3,12-dihydroxy-17-[(2<I>S</I>,5<I>S</I>)-5-(2-hydroxypropan-2-yl)-2-methyloxolan-2-yl]-4,4,8,10,14-pentamethyl-2,3,5,6,7,9,11,12,13,15,16,17-dodecahydro-1<I>H</I>-cyclopenta[a]phenanthren-6-yl]oxy]-4,5-dihydroxy-6-(hydroxymethyl)oxan-3-yl]oxy-6-methyloxane-3,4,5-triol

> <PUBCHEM_IUPAC_NAME>
(2S,3R,4R,5R,6S)-2-[(2R,3R,4S,5S,6R)-2-[[(3S,6S,8R,10R,12R,14R)-3,12-dihydroxy-17-[(2S,5S)-5-(2-hydroxypropan-2-yl)-2-methyloxolan-2-yl]-4,4,8,10,14-pentamethyl-2,3,5,6,7,9,11,12,13,15,16,17-dodecahydro-1H-cyclopenta[a]phenanthren-6-yl]oxy]-4,5-dihydroxy-6-(hydroxymethyl)oxan-3-yl]oxy-6-methyloxane-3,4,5-triol

> <PUBCHEM_IUPAC_SYSTEMATIC_NAME>
(2S,3R,4R,5R,6S)-2-[(2R,3R,4S,5S,6R)-6-(hydroxymethyl)-4,5-bis(oxidanyl)-2-[[(3S,6S,8R,10R,12R,14R)-4,4,8,10,14-pentamethyl-17-[(2S,5S)-2-methyl-5-(2-oxidanylpropan-2-yl)oxolan-2-yl]-3,12-bis(oxidanyl)-2,3,5,6,7,9,11,12,13,15,16,17-dodecahydro-1H-cyclopenta[a]phenanthren-6-yl]oxy]oxan-3-yl]oxy-6-methyl-oxane-3,4,5-triol

> <PUBCHEM_IUPAC_TRADITIONAL_NAME>
(2S,3R,4R,5R,6S)-2-[(2R,3R,4S,5S,6R)-2-[[(3S,6S,8R,10R,12R,14R)-3,12-dihydroxy-17-[(2S,5S)-5-(1-hydroxy-1-methyl-ethyl)-2-methyl-tetrahydrofuran-2-yl]-4,4,8,10,14-pentamethyl-2,3,5,6,7,9,11,12,13,15,16,17-dodecahydro-1H-cyclopenta[a]phenanthren-6-yl]oxy]-4,5-dihydroxy-6-methylol-tetrahydropyran-3-yl]oxy-6-methyl-tetrahydropyran-3,4,5-triol

> <PUBCHEM_IUPAC_INCHI>
InChI=1S/C42H72O14/c1-19-28(46)30(48)32(50)35(52-19)55-33-31(49)29(47)23(18-43)54-36(33)53-22-17-41(8)24(39(6)13-11-25(45)37(2,3)34(22)39)16-21(44)27-20(10-14-40(27,41)7)42(9)15-12-26(56-42)38(4,5)51/h19-36,43-51H,10-18H2,1-9H3/t19-,20?,21+,22-,23+,24?,25-,26-,27?,28-,29+,30+,31-,32+,33+,34?,35-,36+,39+,40+,41+,42-/m0/s1

> <PUBCHEM_IUPAC_INCHIKEY>
JBGYSAVRIDZNKA-RQTVOIONSA-N

> <PUBCHEM_XLOGP3_AA>
1.9

> <PUBCHEM_EXACT_MASS>
800.492207

> <PUBCHEM_MOLECULAR_FORMULA>
C42H72O14

> <PUBCHEM_MOLECULAR_WEIGHT>
801

> <PUBCHEM_OPENEYE_CAN_SMILES>
CC1C(C(C(C(O1)OC2C(C(C(OC2OC3CC4(C(CC(C5C4(CCC5C6(CCC(O6)C(C)(C)O)C)C)O)C7(C3C(C(CC7)O)(C)C)C)C)CO)O)O)O)O)O

> <PUBCHEM_OPENEYE_ISO_SMILES>
C[C@H]1[C@@H]([C@H]([C@H]([C@@H](O1)O[C@@H]2[C@H]([C@@H]([C@H](O[C@H]2O[C@H]3C[C@@]4(C(C[C@H](C5[C@]4(CCC5[C@@]6(CC[C@H](O6)C(C)(C)O)C)C)O)[C@@]7(C3C([C@H](CC7)O)(C)C)C)C)CO)O)O)O)O)O

> <PUBCHEM_CACTVS_TPSA>
228

> <PUBCHEM_MONOISOTOPIC_WEIGHT>
800.492207

> <PUBCHEM_TOTAL_CHARGE>
0

> <PUBCHEM_HEAVY_ATOM_COUNT>
56

> <PUBCHEM_ATOM_DEF_STEREO_COUNT>
18

> <PUBCHEM_ATOM_UDEF_STEREO_COUNT>
4

> <PUBCHEM_BOND_DEF_STEREO_COUNT>
0

> <PUBCHEM_BOND_UDEF_STEREO_COUNT>
0

> <PUBCHEM_ISOTOPIC_ATOM_COUNT>
0

> <PUBCHEM_COMPONENT_COUNT>
1

> <PUBCHEM_CACTVS_TAUTO_COUNT>
-1

> <PUBCHEM_COORDINATE_TYPE>
1
5
255

> <PUBCHEM_BONDANNOTATIONS>
26  1  5
42  1  5
52  12  6
53  13  6
55  14  5
15  30  6
16  31  5
17  23  3
18  33  6
19  21  3
25  2  6
20  28  3
21  27  3
32  39  5
34  4  6
41  99  6
48  50  5
54  56  6
44  7  6
51  7  5
45  8  5
49  9  6

$$$$
