6441009
  -OEChem-09132016282D

127132  0     1  0  0  0  0  0999 V2000
    8.9024   -1.2291    0.0000 O   0  0  0  0  0  0  0  0  0  0  0  0
    8.0028    4.3367    0.0000 O   0  0  0  0  0  0  0  0  0  0  0  0
   12.5474   -0.1981    0.0000 O   0  0  0  0  0  0  0  0  0  0  0  0
    4.9315    3.7695    0.0000 O   0  0  0  0  0  0  0  0  0  0  0  0
    7.1703   -1.2291    0.0000 O   0  0  0  0  0  0  0  0  0  0  0  0
    8.9024   -3.2291    0.0000 O   0  0  0  0  0  0  0  0  0  0  0  0
    7.1703   -4.2291    0.0000 O   0  0  0  0  0  0  0  0  0  0  0  0
    5.4383   -3.2291    0.0000 O   0  0  0  0  0  0  0  0  0  0  0  0
    8.0364   -4.7291    0.0000 O   0  0  0  0  0  0  0  0  0  0  0  0
    4.5723   -1.7291    0.0000 O   0  0  0  0  0  0  0  0  0  0  0  0
   10.6344   -4.2291    0.0000 O   0  0  0  0  0  0  0  0  0  0  0  0
   10.6344   -6.2291    0.0000 O   0  0  0  0  0  0  0  0  0  0  0  0
    8.9024   -7.2291    0.0000 O   0  0  0  0  0  0  0  0  0  0  0  0
    7.1464    1.8334    0.0000 C   0  0  2  0  0  0  0  0  0  0  0  0
    8.0144    1.3368    0.0000 C   0  0  3  0  0  0  0  0  0  0  0  0
    8.8785    1.8401    0.0000 C   0  0  3  0  0  0  0  0  0  0  0  0
    9.7904    1.3368    0.0000 C   0  0  2  0  0  0  0  0  0  0  0  0
    7.1426    2.8334    0.0000 C   0  0  3  0  0  0  0  0  0  0  0  0
    9.8024    0.2952    0.0000 C   0  0  3  0  0  0  0  0  0  0  0  0
    8.0023    0.2952    0.0000 C   0  0  0  0  0  0  0  0  0  0  0  0
    6.1952    3.1345    0.0000 C   0  0  3  0  0  0  0  0  0  0  0  0
    8.8746    2.8401    0.0000 C   0  0  0  0  0  0  0  0  0  0  0  0
    8.0066    3.3367    0.0000 C   0  0  2  0  0  0  0  0  0  0  0  0
    8.9024   -0.2291    0.0000 C   0  0  1  0  0  0  0  0  0  0  0  0
    6.2014    1.5250    0.0000 C   0  0  0  0  0  0  0  0  0  0  0  0
   10.7400   -0.2509    0.0000 C   0  0  0  0  0  0  0  0  0  0  0  0
   10.7151    1.9044    0.0000 C   0  0  0  0  0  0  0  0  0  0  0  0
    5.6147    2.3275    0.0000 C   0  0  0  0  0  0  0  0  0  0  0  0
    7.1503    0.8334    0.0000 C   0  0  0  0  0  0  0  0  0  0  0  0
    9.7788    2.3367    0.0000 C   0  0  0  0  0  0  0  0  0  0  0  0
   11.6775    0.2952    0.0000 C   0  0  3  0  0  0  0  0  0  0  0  0
   11.6650    1.3801    0.0000 C   0  0  0  0  0  0  0  0  0  0  0  0
    5.8808    4.0838    0.0000 C   0  0  2  0  0  0  0  0  0  0  0  0
   11.2400   -1.1169    0.0000 C   0  0  0  0  0  0  0  0  0  0  0  0
   10.2400   -1.1169    0.0000 C   0  0  0  0  0  0  0  0  0  0  0  0
    5.5665    5.0331    0.0000 C   0  0  0  0  0  0  0  0  0  0  0  0
    6.8302    4.3981    0.0000 C   0  0  0  0  0  0  0  0  0  0  0  0
    8.0364   -1.7291    0.0000 C   0  0  2  0  0  0  0  0  0  0  0  0
    4.5872    5.2356    0.0000 C   0  0  0  0  0  0  0  0  0  0  0  0
    8.0364   -2.7291    0.0000 C   0  0  1  0  0  0  0  0  0  0  0  0
    7.1703   -3.2291    0.0000 C   0  0  2  0  0  0  0  0  0  0  0  0
    6.3043   -1.7291    0.0000 C   0  0  1  0  0  0  0  0  0  0  0  0
    4.2729    6.1849    0.0000 C   0  0  0  0  0  0  0  0  0  0  0  0
    6.3043   -2.7291    0.0000 C   0  0  1  0  0  0  0  0  0  0  0  0
    5.4383   -1.2291    0.0000 C   0  0  0  0  0  0  0  0  0  0  0  0
    3.2936    6.3873    0.0000 C   0  0  0  0  0  0  0  0  0  0  0  0
    8.9024   -4.2291    0.0000 C   0  0  2  0  0  0  0  0  0  0  0  0
    9.7684   -4.7291    0.0000 C   0  0  1  0  0  0  0  0  0  0  0  0
    2.9793    7.3366    0.0000 C   0  0  0  0  0  0  0  0  0  0  0  0
    2.6286    5.6405    0.0000 C   0  0  0  0  0  0  0  0  0  0  0  0
    9.7684   -5.7291    0.0000 C   0  0  1  0  0  0  0  0  0  0  0  0
    8.0364   -5.7291    0.0000 C   0  0  2  0  0  0  0  0  0  0  0  0
    8.9024   -6.2291    0.0000 C   0  0  2  0  0  0  0  0  0  0  0  0
    2.0000    7.5391    0.0000 C   0  0  0  0  0  0  0  0  0  0  0  0
    7.1703   -6.2291    0.0000 C   0  0  0  0  0  0  0  0  0  0  0  0
    8.5501    1.0247    0.0000 H   0  0  0  0  0  0  0  0  0  0  0  0
    9.4118    2.1563    0.0000 H   0  0  0  0  0  0  0  0  0  0  0  0
    7.0746    3.4497    0.0000 H   0  0  0  0  0  0  0  0  0  0  0  0
    9.8024   -0.3248    0.0000 H   0  0  0  0  0  0  0  0  0  0  0  0
    7.3927    0.4083    0.0000 H   0  0  0  0  0  0  0  0  0  0  0  0
    7.7865   -0.2860    0.0000 H   0  0  0  0  0  0  0  0  0  0  0  0
    5.5823    3.2283    0.0000 H   0  0  0  0  0  0  0  0  0  0  0  0
    9.4856    2.7348    0.0000 H   0  0  0  0  0  0  0  0  0  0  0  0
    9.0844    3.4235    0.0000 H   0  0  0  0  0  0  0  0  0  0  0  0
    7.4685    3.6447    0.0000 H   0  0  0  0  0  0  0  0  0  0  0  0
    9.4399   -0.5381    0.0000 H   0  0  0  0  0  0  0  0  0  0  0  0
    5.6652    1.2137    0.0000 H   0  0  0  0  0  0  0  0  0  0  0  0
    6.4546    0.9591    0.0000 H   0  0  0  0  0  0  0  0  0  0  0  0
   11.1031    2.3880    0.0000 H   0  0  0  0  0  0  0  0  0  0  0  0
   10.3051    2.3695    0.0000 H   0  0  0  0  0  0  0  0  0  0  0  0
    5.1522    2.7405    0.0000 H   0  0  0  0  0  0  0  0  0  0  0  0
    5.1554    1.9110    0.0000 H   0  0  0  0  0  0  0  0  0  0  0  0
    6.5303    0.8310    0.0000 H   0  0  0  0  0  0  0  0  0  0  0  0
    7.1527    0.2134    0.0000 H   0  0  0  0  0  0  0  0  0  0  0  0
    7.7703    0.8358    0.0000 H   0  0  0  0  0  0  0  0  0  0  0  0
   10.3988    2.3439    0.0000 H   0  0  0  0  0  0  0  0  0  0  0  0
    9.7717    2.9566    0.0000 H   0  0  0  0  0  0  0  0  0  0  0  0
    9.1589    2.3295    0.0000 H   0  0  0  0  0  0  0  0  0  0  0  0
   12.2114    0.6104    0.0000 H   0  0  0  0  0  0  0  0  0  0  0  0
   12.2770    1.2811    0.0000 H   0  0  0  0  0  0  0  0  0  0  0  0
   11.8673    1.9662    0.0000 H   0  0  0  0  0  0  0  0  0  0  0  0
   10.7030   -1.4269    0.0000 H   0  0  0  0  0  0  0  0  0  0  0  0
   11.5500   -1.6539    0.0000 H   0  0  0  0  0  0  0  0  0  0  0  0
   11.7769   -0.8069    0.0000 H   0  0  0  0  0  0  0  0  0  0  0  0
    9.7030   -0.8069    0.0000 H   0  0  0  0  0  0  0  0  0  0  0  0
    9.9300   -1.6539    0.0000 H   0  0  0  0  0  0  0  0  0  0  0  0
   10.7769   -1.4269    0.0000 H   0  0  0  0  0  0  0  0  0  0  0  0
    8.5385    4.6488    0.0000 H   0  0  0  0  0  0  0  0  0  0  0  0
    6.1800    5.1228    0.0000 H   0  0  0  0  0  0  0  0  0  0  0  0
    5.5847    5.6529    0.0000 H   0  0  0  0  0  0  0  0  0  0  0  0
    7.0250    3.8096    0.0000 H   0  0  0  0  0  0  0  0  0  0  0  0
    7.4187    4.5930    0.0000 H   0  0  0  0  0  0  0  0  0  0  0  0
    6.6353    4.9867    0.0000 H   0  0  0  0  0  0  0  0  0  0  0  0
   13.0819    0.1160    0.0000 H   0  0  0  0  0  0  0  0  0  0  0  0
    8.5733   -2.0391    0.0000 H   0  0  0  0  0  0  0  0  0  0  0  0
    4.4685    4.1818    0.0000 H   0  0  0  0  0  0  0  0  0  0  0  0
    3.9738    5.1458    0.0000 H   0  0  0  0  0  0  0  0  0  0  0  0
    4.5691    4.6158    0.0000 H   0  0  0  0  0  0  0  0  0  0  0  0
    8.0364   -3.3491    0.0000 H   0  0  0  0  0  0  0  0  0  0  0  0
    7.7073   -3.5391    0.0000 H   0  0  0  0  0  0  0  0  0  0  0  0
    6.3043   -1.1091    0.0000 H   0  0  0  0  0  0  0  0  0  0  0  0
    4.6852    6.6479    0.0000 H   0  0  0  0  0  0  0  0  0  0  0  0
    6.3043   -3.3491    0.0000 H   0  0  0  0  0  0  0  0  0  0  0  0
    5.8368   -0.7541    0.0000 H   0  0  0  0  0  0  0  0  0  0  0  0
    5.0398   -0.7541    0.0000 H   0  0  0  0  0  0  0  0  0  0  0  0
    9.4393   -3.9191    0.0000 H   0  0  0  0  0  0  0  0  0  0  0  0
    6.6334   -4.5391    0.0000 H   0  0  0  0  0  0  0  0  0  0  0  0
    5.4383   -3.8491    0.0000 H   0  0  0  0  0  0  0  0  0  0  0  0
   10.3053   -5.0391    0.0000 H   0  0  0  0  0  0  0  0  0  0  0  0
    3.5928    7.4264    0.0000 H   0  0  0  0  0  0  0  0  0  0  0  0
    2.9975    7.9564    0.0000 H   0  0  0  0  0  0  0  0  0  0  0  0
    2.1656    6.0527    0.0000 H   0  0  0  0  0  0  0  0  0  0  0  0
    2.2164    5.1774    0.0000 H   0  0  0  0  0  0  0  0  0  0  0  0
    3.0917    5.2282    0.0000 H   0  0  0  0  0  0  0  0  0  0  0  0
    4.0353   -1.4191    0.0000 H   0  0  0  0  0  0  0  0  0  0  0  0
   10.3053   -5.4191    0.0000 H   0  0  0  0  0  0  0  0  0  0  0  0
    7.4994   -5.4191    0.0000 H   0  0  0  0  0  0  0  0  0  0  0  0
    9.4393   -6.5391    0.0000 H   0  0  0  0  0  0  0  0  0  0  0  0
    2.1255    8.1462    0.0000 H   0  0  0  0  0  0  0  0  0  0  0  0
    1.3928    7.6646    0.0000 H   0  0  0  0  0  0  0  0  0  0  0  0
    1.8745    6.9319    0.0000 H   0  0  0  0  0  0  0  0  0  0  0  0
   11.1714   -4.5391    0.0000 H   0  0  0  0  0  0  0  0  0  0  0  0
    6.8603   -5.6922    0.0000 H   0  0  0  0  0  0  0  0  0  0  0  0
    6.6334   -6.5391    0.0000 H   0  0  0  0  0  0  0  0  0  0  0  0
    7.4803   -6.7660    0.0000 H   0  0  0  0  0  0  0  0  0  0  0  0
   10.6344   -6.8491    0.0000 H   0  0  0  0  0  0  0  0  0  0  0  0
    8.3654   -7.5391    0.0000 H   0  0  0  0  0  0  0  0  0  0  0  0
 24  1  1  6  0  0  0
 38  1  1  1  0  0  0
 23  2  1  1  0  0  0
  2 88  1  0  0  0  0
  3 31  1  0  0  0  0
  3 94  1  0  0  0  0
 33  4  1  6  0  0  0
  4 96  1  0  0  0  0
  5 38  1  0  0  0  0
  5 42  1  0  0  0  0
 40  6  1  6  0  0  0
 47  6  1  1  0  0  0
 41  7  1  1  0  0  0
  7107  1  0  0  0  0
 44  8  1  6  0  0  0
  8108  1  0  0  0  0
  9 47  1  0  0  0  0
  9 52  1  0  0  0  0
 10 45  1  0  0  0  0
 10115  1  0  0  0  0
 48 11  1  6  0  0  0
 11122  1  0  0  0  0
 51 12  1  6  0  0  0
 12126  1  0  0  0  0
 53 13  1  1  0  0  0
 13127  1  0  0  0  0
 14 15  1  0  0  0  0
 14 18  1  0  0  0  0
 14 25  1  0  0  0  0
 14 29  1  6  0  0  0
 15 16  1  0  0  0  0
 15 20  1  0  0  0  0
 15 56  1  0  0  0  0
 16 17  1  0  0  0  0
 16 22  1  0  0  0  0
 16 57  1  0  0  0  0
 17 19  1  0  0  0  0
 17 27  1  0  0  0  0
 17 30  1  6  0  0  0
 18 21  1  0  0  0  0
 18 23  1  0  0  0  0
 18 58  1  0  0  0  0
 19 24  1  0  0  0  0
 19 26  1  0  0  0  0
 19 59  1  0  0  0  0
 20 24  1  0  0  0  0
 20 60  1  0  0  0  0
 20 61  1  0  0  0  0
 21 28  1  0  0  0  0
 21 33  1  0  0  0  0
 21 62  1  0  0  0  0
 22 23  1  0  0  0  0
 22 63  1  0  0  0  0
 22 64  1  0  0  0  0
 23 65  1  0  0  0  0
 24 66  1  0  0  0  0
 25 28  1  0  0  0  0
 25 67  1  0  0  0  0
 25 68  1  0  0  0  0
 26 31  1  0  0  0  0
 26 34  1  0  0  0  0
 26 35  1  0  0  0  0
 27 32  1  0  0  0  0
 27 69  1  0  0  0  0
 27 70  1  0  0  0  0
 28 71  1  0  0  0  0
 28 72  1  0  0  0  0
 29 73  1  0  0  0  0
 29 74  1  0  0  0  0
 29 75  1  0  0  0  0
 30 76  1  0  0  0  0
 30 77  1  0  0  0  0
 30 78  1  0  0  0  0
 31 32  1  0  0  0  0
 31 79  1  0  0  0  0
 32 80  1  0  0  0  0
 32 81  1  0  0  0  0
 33 36  1  0  0  0  0
 33 37  1  0  0  0  0
 34 82  1  0  0  0  0
 34 83  1  0  0  0  0
 34 84  1  0  0  0  0
 35 85  1  0  0  0  0
 35 86  1  0  0  0  0
 35 87  1  0  0  0  0
 36 39  1  0  0  0  0
 36 89  1  0  0  0  0
 36 90  1  0  0  0  0
 37 91  1  0  0  0  0
 37 92  1  0  0  0  0
 37 93  1  0  0  0  0
 38 40  1  0  0  0  0
 38 95  1  0  0  0  0
 39 43  1  0  0  0  0
 39 97  1  0  0  0  0
 39 98  1  0  0  0  0
 40 41  1  0  0  0  0
 40 99  1  0  0  0  0
 41 44  1  0  0  0  0
 41100  1  0  0  0  0
 42 44  1  0  0  0  0
 42 45  1  1  0  0  0
 42101  1  0  0  0  0
 43 46  2  0  0  0  0
 43102  1  0  0  0  0
 44103  1  0  0  0  0
 45104  1  0  0  0  0
 45105  1  0  0  0  0
 46 49  1  0  0  0  0
 46 50  1  0  0  0  0
 47 48  1  0  0  0  0
 47106  1  0  0  0  0
 48 51  1  0  0  0  0
 48109  1  0  0  0  0
 49 54  1  0  0  0  0
 49110  1  0  0  0  0
 49111  1  0  0  0  0
 50112  1  0  0  0  0
 50113  1  0  0  0  0
 50114  1  0  0  0  0
 51 53  1  0  0  0  0
 51116  1  0  0  0  0
 52 53  1  0  0  0  0
 52 55  1  6  0  0  0
 52117  1  0  0  0  0
 53118  1  0  0  0  0
 54119  1  0  0  0  0
 54120  1  0  0  0  0
 54121  1  0  0  0  0
 55123  1  0  0  0  0
 55124  1  0  0  0  0
 55125  1  0  0  0  0
M  END
> <PUBCHEM_COMPOUND_CID>
6441009

> <PUBCHEM_COMPOUND_CANONICALIZED>
1

> <PUBCHEM_CACTVS_COMPLEXITY>
1360

> <PUBCHEM_CACTVS_HBOND_ACCEPTOR>
13

> <PUBCHEM_CACTVS_HBOND_DONOR>
9

> <PUBCHEM_CACTVS_ROTATABLE_BOND>
10

> <PUBCHEM_CACTVS_SUBSKEYS>
AAADcfB8PAAAAAAAAAAAAAAAAAAAAYAAAAA0aMECAAAAAGDAAAAAGgAACAAAD1SwgAMCCAAABgCAAiBCAAAAAAAgAAAACAAAAAgREAIAAQAiQAAFgAAPAAPA4PwPgAAAAAAAAADAAAYAADAAAQAACAAAAA==

> <PUBCHEM_IUPAC_OPENEYE_NAME>
(2S,3R,4R,5R,6S)-2-[(2R,3R,4S,5S,6R)-2-[[(6R,10R,12S,14R)-3,12-dihydroxy-17-[(E,1S)-1-hydroxy-1,5-dimethyl-hept-4-enyl]-4,4,10,14-tetramethyl-1,2,3,5,6,7,8,9,11,12,13,15,16,17-tetradecahydrocyclopenta[a]phenanthren-6-yl]oxy]-4,5-dihydroxy-6-(hydroxymethyl)tetrahydropyran-3-yl]oxy-6-methyl-tetrahydropyran-3,4,5-triol

> <PUBCHEM_IUPAC_CAS_NAME>
(2S,3R,4R,5R,6S)-2-[[(2R,3R,4S,5S,6R)-2-[[(6R,10R,12S,14R)-3,12-dihydroxy-17-[(E,2S)-2-hydroxy-6-methyloct-5-en-2-yl]-4,4,10,14-tetramethyl-1,2,3,5,6,7,8,9,11,12,13,15,16,17-tetradecahydrocyclopenta[a]phenanthren-6-yl]oxy]-4,5-dihydroxy-6-(hydroxymethyl)-3-oxanyl]oxy]-6-methyloxane-3,4,5-triol

> <PUBCHEM_IUPAC_NAME_MARKUP>
(2<I>S</I>,3<I>R</I>,4<I>R</I>,5<I>R</I>,6<I>S</I>)-2-[(2<I>R</I>,3<I>R</I>,4<I>S</I>,5<I>S</I>,6<I>R</I>)-2-[[(6<I>R</I>,10<I>R</I>,12<I>S</I>,14<I>R</I>)-3,12-dihydroxy-17-[(<I>E</I>,2<I>S</I>)-2-hydroxy-6-methyloct-5-en-2-yl]-4,4,10,14-tetramethyl-1,2,3,5,6,7,8,9,11,12,13,15,16,17-tetradecahydrocyclopenta[a]phenanthren-6-yl]oxy]-4,5-dihydroxy-6-(hydroxymethyl)oxan-3-yl]oxy-6-methyloxane-3,4,5-triol

> <PUBCHEM_IUPAC_NAME>
(2S,3R,4R,5R,6S)-2-[(2R,3R,4S,5S,6R)-2-[[(6R,10R,12S,14R)-3,12-dihydroxy-17-[(E,2S)-2-hydroxy-6-methyloct-5-en-2-yl]-4,4,10,14-tetramethyl-1,2,3,5,6,7,8,9,11,12,13,15,16,17-tetradecahydrocyclopenta[a]phenanthren-6-yl]oxy]-4,5-dihydroxy-6-(hydroxymethyl)oxan-3-yl]oxy-6-methyloxane-3,4,5-triol

> <PUBCHEM_IUPAC_SYSTEMATIC_NAME>
(2S,3R,4R,5R,6S)-2-[(2R,3R,4S,5S,6R)-6-(hydroxymethyl)-4,5-bis(oxidanyl)-2-[[(6R,10R,12S,14R)-4,4,10,14-tetramethyl-17-[(E,2S)-6-methyl-2-oxidanyl-oct-5-en-2-yl]-3,12-bis(oxidanyl)-1,2,3,5,6,7,8,9,11,12,13,15,16,17-tetradecahydrocyclopenta[a]phenanthren-6-yl]oxy]oxan-3-yl]oxy-6-methyl-oxane-3,4,5-triol

> <PUBCHEM_IUPAC_TRADITIONAL_NAME>
(2S,3R,4R,5R,6S)-2-[(2R,3R,4S,5S,6R)-2-[[(6R,10R,12S,14R)-3,12-dihydroxy-17-[(E,1S)-1-hydroxy-1,5-dimethyl-hept-4-enyl]-4,4,10,14-tetramethyl-1,2,3,5,6,7,8,9,11,12,13,15,16,17-tetradecahydrocyclopenta[a]phenanthren-6-yl]oxy]-4,5-dihydroxy-6-methylol-tetrahydropyran-3-yl]oxy-6-methyl-tetrahydropyran-3,4,5-triol

> <PUBCHEM_IUPAC_INCHI>
InChI=1S/C42H72O13/c1-9-20(2)11-10-14-42(8,51)22-12-15-40(6)24-18-26(36-39(4,5)28(45)13-16-41(36,7)23(24)17-25(44)29(22)40)53-38-35(33(49)31(47)27(19-43)54-38)55-37-34(50)32(48)30(46)21(3)52-37/h11,21-38,43-51H,9-10,12-19H2,1-8H3/b20-11+/t21-,22?,23?,24?,25-,26+,27+,28?,29?,30-,31+,32+,33-,34+,35+,36?,37-,38+,40+,41+,42-/m0/s1

> <PUBCHEM_IUPAC_INCHIKEY>
QOVKKEKBURQILF-HOJASPKOSA-N

> <PUBCHEM_XLOGP3_AA>
3.2

> <PUBCHEM_EXACT_MASS>
784.497292

> <PUBCHEM_MOLECULAR_FORMULA>
C42H72O13

> <PUBCHEM_MOLECULAR_WEIGHT>
785

> <PUBCHEM_OPENEYE_CAN_SMILES>
CCC(=CCCC(C)(C1CCC2(C1C(CC3C2CC(C4C3(CCC(C4(C)C)O)C)OC5C(C(C(C(O5)CO)O)O)OC6C(C(C(C(O6)C)O)O)O)O)C)O)C

> <PUBCHEM_OPENEYE_ISO_SMILES>
CC/C(=C/CC[C@@](C)(C1CC[C@]2(C1[C@H](CC3C2C[C@H](C4[C@@]3(CCC(C4(C)C)O)C)O[C@H]5[C@@H]([C@H]([C@@H]([C@H](O5)CO)O)O)O[C@H]6[C@@H]([C@@H]([C@H]([C@@H](O6)C)O)O)O)O)C)O)/C

> <PUBCHEM_CACTVS_TPSA>
219

> <PUBCHEM_MONOISOTOPIC_WEIGHT>
784.497292

> <PUBCHEM_TOTAL_CHARGE>
0

> <PUBCHEM_HEAVY_ATOM_COUNT>
55

> <PUBCHEM_ATOM_DEF_STEREO_COUNT>
15

> <PUBCHEM_ATOM_UDEF_STEREO_COUNT>
6

> <PUBCHEM_BOND_DEF_STEREO_COUNT>
1

> <PUBCHEM_BOND_UDEF_STEREO_COUNT>
0

> <PUBCHEM_ISOTOPIC_ATOM_COUNT>
0

> <PUBCHEM_COMPONENT_COUNT>
1

> <PUBCHEM_CACTVS_TAUTO_COUNT>
-1

> <PUBCHEM_COORDINATE_TYPE>
1
5
255

> <PUBCHEM_BONDANNOTATIONS>
24  1  6
38  1  5
48  11  6
51  12  6
53  13  5
14  29  6
15  20  3
16  22  3
17  30  6
18  21  3
19  26  3
23  2  5
21  28  3
31  3  3
33  4  6
42  45  5
52  55  6
40  6  6
47  6  5
41  7  5
44  8  6

$$$$
