14526618
  -OEChem-08242016232D

 55 61  0     1  0  0  0  0  0999 V2000
    2.1059   -1.7437    0.0000 O   0  0  0  0  0  0  0  0  0  0  0  0
    7.1140    0.8079    0.0000 O   0  0  0  0  0  0  0  0  0  0  0  0
    4.4974    4.0891    0.0000 O   0  0  0  0  0  0  0  0  0  0  0  0
    5.8170   -3.2672    0.0000 N   0  0  3  0  0  0  0  0  0  0  0  0
    3.6607    0.8579    0.0000 C   0  0  3  0  0  0  0  0  0  0  0  0
    3.7305   -0.1814    0.0000 C   0  0  3  0  0  0  0  0  0  0  0  0
    4.5034    0.3146    0.0000 C   0  0  3  0  0  0  0  0  0  0  0  0
    5.5251   -0.0399    0.0000 C   0  0  3  0  0  0  0  0  0  0  0  0
    5.4312    0.9975    0.0000 C   0  0  3  0  0  0  0  0  0  0  0  0
    4.5303    1.4313    0.0000 C   0  0  3  0  0  0  0  0  0  0  0  0
    2.8975   -1.8612    0.0000 C   0  0  3  0  0  0  0  0  0  0  0  0
    4.6690   -0.6333    0.0000 C   0  0  0  0  0  0  0  0  0  0  0  0
    2.6320    0.6868    0.0000 C   0  0  3  0  0  0  0  0  0  0  0  0
    3.9478   -3.4145    0.0000 C   0  0  3  0  0  0  0  0  0  0  0  0
    5.3244    2.1742    0.0000 C   0  0  0  0  0  0  0  0  0  0  0  0
    2.1081   -1.1798    0.0000 C   0  0  0  0  0  0  0  0  0  0  0  0
    6.3322    1.4313    0.0000 C   0  0  3  0  0  0  0  0  0  0  0  0
    2.0000   -0.1426    0.0000 C   0  0  0  0  0  0  0  0  0  0  0  0
    4.3078    2.4063    0.0000 C   0  0  0  0  0  0  0  0  0  0  0  0
    5.9312    3.1881    0.0000 C   0  0  3  0  0  0  0  0  0  0  0  0
    2.4566   -2.7588    0.0000 C   0  0  0  0  0  0  0  0  0  0  0  0
    6.5547    2.4063    0.0000 C   0  0  0  0  0  0  0  0  0  0  0  0
    4.9312    3.1881    0.0000 C   0  0  0  0  0  0  0  0  0  0  0  0
    6.3867   -4.0891    0.0000 C   0  0  0  0  0  0  0  0  0  0  0  0
    7.5297    2.6288    0.0000 C   0  0  0  0  0  0  0  0  0  0  0  0
    7.3833   -4.0067    0.0000 C   0  0  0  0  0  0  0  0  0  0  0  0
    3.9319   -0.7677    0.0000 H   0  0  0  0  0  0  0  0  0  0  0  0
    4.9457   -0.1200    0.0000 H   0  0  0  0  0  0  0  0  0  0  0  0
    6.0868   -0.3025    0.0000 H   0  0  0  0  0  0  0  0  0  0  0  0
    5.0150    1.8179    0.0000 H   0  0  0  0  0  0  0  0  0  0  0  0
    4.3084   -1.1376    0.0000 H   0  0  0  0  0  0  0  0  0  0  0  0
    5.1042   -1.0749    0.0000 H   0  0  0  0  0  0  0  0  0  0  0  0
    2.3120    1.2179    0.0000 H   0  0  0  0  0  0  0  0  0  0  0  0
    3.7474   -4.0013    0.0000 H   0  0  0  0  0  0  0  0  0  0  0  0
    4.9166    2.6412    0.0000 H   0  0  0  0  0  0  0  0  0  0  0  0
    4.7543    1.9304    0.0000 H   0  0  0  0  0  0  0  0  0  0  0  0
    1.4968   -1.0761    0.0000 H   0  0  0  0  0  0  0  0  0  0  0  0
    1.8439   -1.7408    0.0000 H   0  0  0  0  0  0  0  0  0  0  0  0
    6.9174    1.6361    0.0000 H   0  0  0  0  0  0  0  0  0  0  0  0
    1.6259    0.3518    0.0000 H   0  0  0  0  0  0  0  0  0  0  0  0
    1.4233   -0.3702    0.0000 H   0  0  0  0  0  0  0  0  0  0  0  0
    3.9212    2.8910    0.0000 H   0  0  0  0  0  0  0  0  0  0  0  0
    3.7492    2.1373    0.0000 H   0  0  0  0  0  0  0  0  0  0  0  0
    6.2002    3.7467    0.0000 H   0  0  0  0  0  0  0  0  0  0  0  0
    1.9001   -2.4854    0.0000 H   0  0  0  0  0  0  0  0  0  0  0  0
    2.1832   -3.3153    0.0000 H   0  0  0  0  0  0  0  0  0  0  0  0
    3.0131   -3.0321    0.0000 H   0  0  0  0  0  0  0  0  0  0  0  0
    5.8236   -4.3484    0.0000 H   0  0  0  0  0  0  0  0  0  0  0  0
    6.5443   -4.6887    0.0000 H   0  0  0  0  0  0  0  0  0  0  0  0
    7.6912    1.0344    0.0000 H   0  0  0  0  0  0  0  0  0  0  0  0
    7.9514    2.1743    0.0000 H   0  0  0  0  0  0  0  0  0  0  0  0
    7.7124    3.2213    0.0000 H   0  0  0  0  0  0  0  0  0  0  0  0
    7.4344   -4.6246    0.0000 H   0  0  0  0  0  0  0  0  0  0  0  0
    8.0012   -3.9556    0.0000 H   0  0  0  0  0  0  0  0  0  0  0  0
    7.3322   -3.3888    0.0000 H   0  0  0  0  0  0  0  0  0  0  0  0
  1 13  1  0  0  0  0
  1 14  1  0  0  0  0
  2 17  1  0  0  0  0
  2 50  1  0  0  0  0
  3 23  2  0  0  0  0
  4  7  1  0  0  0  0
  4 14  1  0  0  0  0
  4 24  1  0  0  0  0
  5  6  1  0  0  0  0
  5  7  1  0  0  0  0
  5 10  1  0  0  0  0
  5 13  1  0  0  0  0
  6 11  1  0  0  0  0
  6 12  1  0  0  0  0
  6 27  1  0  0  0  0
  7  8  1  0  0  0  0
  7 28  1  0  0  0  0
  8  9  1  0  0  0  0
  8 12  1  0  0  0  0
  8 29  1  0  0  0  0
  9 10  1  0  0  0  0
  9 15  1  0  0  0  0
  9 17  1  0  0  0  0
 10 19  1  0  0  0  0
 10 30  1  0  0  0  0
 11 14  1  0  0  0  0
 11 16  1  0  0  0  0
 11 21  1  0  0  0  0
 12 31  1  0  0  0  0
 12 32  1  0  0  0  0
 13 18  1  0  0  0  0
 13 33  1  0  0  0  0
 14 34  1  0  0  0  0
 15 20  1  0  0  0  0
 15 35  1  0  0  0  0
 15 36  1  0  0  0  0
 16 18  1  0  0  0  0
 16 37  1  0  0  0  0
 16 38  1  0  0  0  0
 17 22  1  0  0  0  0
 17 39  1  0  0  0  0
 18 40  1  0  0  0  0
 18 41  1  0  0  0  0
 19 23  1  0  0  0  0
 19 42  1  0  0  0  0
 19 43  1  0  0  0  0
 20 22  1  0  0  0  0
 20 23  1  0  0  0  0
 20 44  1  0  0  0  0
 21 45  1  0  0  0  0
 21 46  1  0  0  0  0
 21 47  1  0  0  0  0
 22 25  2  0  0  0  0
 24 26  1  0  0  0  0
 24 48  1  0  0  0  0
 24 49  1  0  0  0  0
 25 51  1  0  0  0  0
 25 52  1  0  0  0  0
 26 53  1  0  0  0  0
 26 54  1  0  0  0  0
 26 55  1  0  0  0  0
M  END
> <PUBCHEM_COMPOUND_CID>
14526618

> <PUBCHEM_COMPOUND_CANONICALIZED>
1

> <PUBCHEM_CACTVS_COMPLEXITY>
779

> <PUBCHEM_CACTVS_HBOND_ACCEPTOR>
4

> <PUBCHEM_CACTVS_HBOND_DONOR>
1

> <PUBCHEM_CACTVS_ROTATABLE_BOND>
1

> <PUBCHEM_CACTVS_SUBSKEYS>
AAADceB6MAAAAAAAAAAAAAAAAAAAAYMGAAA8eNEiB4gAAHjAAAAAHgAACAAADzzhgAYCAAMABgCIAoBSAAAAAAAgAAAAAAEIAAgAFBIAgQAOQAAGgACAEAG6/f/fgAAAAAAAAADAAAYAADAAAaAADQAAAA==

> <PUBCHEM_IUPAC_OPENEYE_NAME>
11-ethyl-19-hydroxy-5-methyl-18-methylene-9-oxa-11-azaheptacyclo[15.2.1.01,14.02,12.04,13.05,10.08,13]icosan-16-one

> <PUBCHEM_IUPAC_CAS_NAME>
11-ethyl-19-hydroxy-5-methyl-18-methylene-9-oxa-11-azaheptacyclo[15.2.1.01,14.02,12.04,13.05,10.08,13]eicosan-16-one

> <PUBCHEM_IUPAC_NAME_MARKUP>
11-ethyl-19-hydroxy-5-methyl-18-methylidene-9-oxa-11-azaheptacyclo[15.2.1.0<SUP>1,14</SUP>.0<SUP>2,12</SUP>.0<SUP>4,13</SUP>.0<SUP>5,10</SUP>.0<SUP>8,13</SUP>]icosan-16-one

> <PUBCHEM_IUPAC_NAME>
11-ethyl-19-hydroxy-5-methyl-18-methylidene-9-oxa-11-azaheptacyclo[15.2.1.01,14.02,12.04,13.05,10.08,13]icosan-16-one

> <PUBCHEM_IUPAC_SYSTEMATIC_NAME>
11-ethyl-5-methyl-18-methylidene-19-oxidanyl-9-oxa-11-azaheptacyclo[15.2.1.01,14.02,12.04,13.05,10.08,13]icosan-16-one

> <PUBCHEM_IUPAC_TRADITIONAL_NAME>
11-ethyl-19-hydroxy-5-methyl-18-methylene-9-oxa-11-azaheptacyclo[15.2.1.01,14.02,12.04,13.05,10.08,13]eicosan-16-one

> <PUBCHEM_IUPAC_INCHI>
InChI=1S/C22H29NO3/c1-4-23-17-12-7-14-20(3)6-5-16(26-19(20)23)22(14,17)15-8-13(24)11-9-21(12,15)18(25)10(11)2/h11-12,14-19,25H,2,4-9H2,1,3H3

> <PUBCHEM_IUPAC_INCHIKEY>
YSSPOBAEOOLGAT-UHFFFAOYSA-N

> <PUBCHEM_XLOGP3_AA>
1.6

> <PUBCHEM_EXACT_MASS>
355.214744

> <PUBCHEM_MOLECULAR_FORMULA>
C22H29NO3

> <PUBCHEM_MOLECULAR_WEIGHT>
355.5

> <PUBCHEM_OPENEYE_CAN_SMILES>
CCN1C2C3CC4C2(C5CCC4(C1O5)C)C6C37CC(C(=C)C7O)C(=O)C6

> <PUBCHEM_OPENEYE_ISO_SMILES>
CCN1C2C3CC4C2(C5CCC4(C1O5)C)C6C37CC(C(=C)C7O)C(=O)C6

> <PUBCHEM_CACTVS_TPSA>
49.8

> <PUBCHEM_MONOISOTOPIC_WEIGHT>
355.214744

> <PUBCHEM_TOTAL_CHARGE>
0

> <PUBCHEM_HEAVY_ATOM_COUNT>
26

> <PUBCHEM_ATOM_DEF_STEREO_COUNT>
0

> <PUBCHEM_ATOM_UDEF_STEREO_COUNT>
11

> <PUBCHEM_BOND_DEF_STEREO_COUNT>
0

> <PUBCHEM_BOND_UDEF_STEREO_COUNT>
0

> <PUBCHEM_ISOTOPIC_ATOM_COUNT>
0

> <PUBCHEM_COMPONENT_COUNT>
1

> <PUBCHEM_CACTVS_TAUTO_COUNT>
-1

> <PUBCHEM_COORDINATE_TYPE>
1
5
255

> <PUBCHEM_BONDANNOTATIONS>
10  19  3
11  21  3
13  18  3
20  15  3
17  2  3
14  4  3
7  4  3
5  13  3
6  12  3
8  12  3
9  15  3

$$$$
