122173204
  -OEChem-08242016102D

 85 91  0     1  0  0  0  0  0999 V2000
    7.4177   -0.9129    0.0000 O   0  0  0  0  0  0  0  0  0  0  0  0
    5.9001   -2.0818    0.0000 O   0  0  0  0  0  0  0  0  0  0  0  0
    4.0775    1.6800    0.0000 O   0  0  0  0  0  0  0  0  0  0  0  0
    7.7939    1.4285    0.0000 O   0  0  0  0  0  0  0  0  0  0  0  0
    6.2027    2.9919    0.0000 O   0  0  0  0  0  0  0  0  0  0  0  0
    8.2068   -0.4717    0.0000 O   0  0  0  0  0  0  0  0  0  0  0  0
    8.1951    2.1380    0.0000 O   0  0  0  0  0  0  0  0  0  0  0  0
    2.3266   -0.5901    0.0000 O   0  0  0  0  0  0  0  0  0  0  0  0
    3.2114   -2.5551    0.0000 O   0  0  0  0  0  0  0  0  0  0  0  0
    9.0217    0.2068    0.0000 O   0  0  0  0  0  0  0  0  0  0  0  0
    2.8821   -0.1490    0.0000 N   0  0  3  0  0  0  0  0  0  0  0  0
    4.8288    0.2462    0.0000 C   0  0  2  0  0  0  0  0  0  0  0  0
    4.8288   -0.6213    0.0000 C   0  0  2  0  0  0  0  0  0  0  0  0
    5.5071    0.7872    0.0000 C   0  0  2  0  0  0  0  0  0  0  0  0
    3.8268    0.1402    0.0000 C   0  0  1  0  0  0  0  0  0  0  0  0
    6.3529   -0.9692    0.0000 C   0  0  3  0  0  0  0  0  0  0  0  0
    6.3529    0.5941    0.0000 C   0  0  1  0  0  0  0  0  0  0  0  0
    6.7294   -0.1876    0.0000 C   0  0  1  0  0  0  0  0  0  0  0  0
    5.5071   -1.1623    0.0000 C   0  0  2  0  0  0  0  0  0  0  0  0
    4.0775   -1.0551    0.0000 C   0  0  2  0  0  0  0  0  0  0  0  0
    4.0775    0.6800    0.0000 C   0  0  1  0  0  0  0  0  0  0  0  0
    5.4293    1.6512    0.0000 C   0  0  0  0  0  0  0  0  0  0  0  0
    6.2271    1.9922    0.0000 C   0  0  1  0  0  0  0  0  0  0  0  0
    6.7979    1.3389    0.0000 C   0  0  2  0  0  0  0  0  0  0  0  0
    7.3742    0.0824    0.0000 C   0  0  1  0  0  0  0  0  0  0  0  0
    2.8821   -0.9009    0.0000 C   0  0  0  0  0  0  0  0  0  0  0  0
    3.3261   -0.6213    0.0000 C   0  0  1  0  0  0  0  0  0  0  0  0
    7.3742    1.5669    0.0000 C   0  0  2  0  0  0  0  0  0  0  0  0
    3.3261    0.2462    0.0000 C   0  0  0  0  0  0  0  0  0  0  0  0
    4.0775   -2.0551    0.0000 C   0  0  0  0  0  0  0  0  0  0  0  0
    2.0782    0.4457    0.0000 C   0  0  0  0  0  0  0  0  0  0  0  0
    5.3003   -2.8819    0.0000 C   0  0  0  0  0  0  0  0  0  0  0  0
    3.2114    2.1800    0.0000 C   0  0  0  0  0  0  0  0  0  0  0  0
    8.7605    1.1721    0.0000 C   0  0  0  0  0  0  0  0  0  0  0  0
    8.1110    3.1344    0.0000 C   0  0  0  0  0  0  0  0  0  0  0  0
    3.2114   -3.5551    0.0000 C   0  0  0  0  0  0  0  0  0  0  0  0
    9.4658    1.8810    0.0000 C   0  0  0  0  0  0  0  0  0  0  0  0
   10.4324    1.6246    0.0000 C   0  0  0  0  0  0  0  0  0  0  0  0
    9.2046    2.8462    0.0000 C   0  0  0  0  0  0  0  0  0  0  0  0
   11.1377    2.3334    0.0000 C   0  0  0  0  0  0  0  0  0  0  0  0
    9.9099    3.5551    0.0000 C   0  0  0  0  0  0  0  0  0  0  0  0
   10.8765    3.2987    0.0000 C   0  0  0  0  0  0  0  0  0  0  0  0
    4.7653   -1.4690    0.0000 H   0  0  0  0  0  0  0  0  0  0  0  0
    4.7255    1.1212    0.0000 H   0  0  0  0  0  0  0  0  0  0  0  0
    3.5149    0.9309    0.0000 H   0  0  0  0  0  0  0  0  0  0  0  0
    6.7395   -1.4540    0.0000 H   0  0  0  0  0  0  0  0  0  0  0  0
    7.2021    0.5560    0.0000 H   0  0  0  0  0  0  0  0  0  0  0  0
    5.3067   -1.7490    0.0000 H   0  0  0  0  0  0  0  0  0  0  0  0
    4.6144    0.9900    0.0000 H   0  0  0  0  0  0  0  0  0  0  0  0
    5.2466    2.2437    0.0000 H   0  0  0  0  0  0  0  0  0  0  0  0
    4.8210    1.5314    0.0000 H   0  0  0  0  0  0  0  0  0  0  0  0
    7.0287    1.9143    0.0000 H   0  0  0  0  0  0  0  0  0  0  0  0
    7.9208    0.3751    0.0000 H   0  0  0  0  0  0  0  0  0  0  0  0
    2.2627   -0.8744    0.0000 H   0  0  0  0  0  0  0  0  0  0  0  0
    2.8292   -1.5186    0.0000 H   0  0  0  0  0  0  0  0  0  0  0  0
    3.1563   -1.2176    0.0000 H   0  0  0  0  0  0  0  0  0  0  0  0
    7.2961    2.1819    0.0000 H   0  0  0  0  0  0  0  0  0  0  0  0
    3.1141    0.8288    0.0000 H   0  0  0  0  0  0  0  0  0  0  0  0
    2.7155    0.1386    0.0000 H   0  0  0  0  0  0  0  0  0  0  0  0
    4.2895   -2.6377    0.0000 H   0  0  0  0  0  0  0  0  0  0  0  0
    4.6880   -1.9475    0.0000 H   0  0  0  0  0  0  0  0  0  0  0  0
    7.2416   -1.5074    0.0000 H   0  0  0  0  0  0  0  0  0  0  0  0
    2.4469    0.9441    0.0000 H   0  0  0  0  0  0  0  0  0  0  0  0
    1.5797    0.8144    0.0000 H   0  0  0  0  0  0  0  0  0  0  0  0
    1.7095   -0.0528    0.0000 H   0  0  0  0  0  0  0  0  0  0  0  0
    6.7319    3.3150    0.0000 H   0  0  0  0  0  0  0  0  0  0  0  0
    8.1673   -1.0904    0.0000 H   0  0  0  0  0  0  0  0  0  0  0  0
    2.0000   -1.1171    0.0000 H   0  0  0  0  0  0  0  0  0  0  0  0
    4.8042   -2.5100    0.0000 H   0  0  0  0  0  0  0  0  0  0  0  0
    4.9284   -3.3780    0.0000 H   0  0  0  0  0  0  0  0  0  0  0  0
    5.7964   -3.2538    0.0000 H   0  0  0  0  0  0  0  0  0  0  0  0
    3.5214    2.7170    0.0000 H   0  0  0  0  0  0  0  0  0  0  0  0
    2.6745    2.4900    0.0000 H   0  0  0  0  0  0  0  0  0  0  0  0
    2.9014    1.6431    0.0000 H   0  0  0  0  0  0  0  0  0  0  0  0
    8.7288    3.1866    0.0000 H   0  0  0  0  0  0  0  0  0  0  0  0
    8.0588    3.7522    0.0000 H   0  0  0  0  0  0  0  0  0  0  0  0
    7.4932    3.0823    0.0000 H   0  0  0  0  0  0  0  0  0  0  0  0
    2.5914   -3.5551    0.0000 H   0  0  0  0  0  0  0  0  0  0  0  0
    3.2114   -4.1751    0.0000 H   0  0  0  0  0  0  0  0  0  0  0  0
    3.8314   -3.5551    0.0000 H   0  0  0  0  0  0  0  0  0  0  0  0
   10.5943    1.0261    0.0000 H   0  0  0  0  0  0  0  0  0  0  0  0
    8.6053    3.0052    0.0000 H   0  0  0  0  0  0  0  0  0  0  0  0
   11.7370    2.1745    0.0000 H   0  0  0  0  0  0  0  0  0  0  0  0
    9.7480    4.1536    0.0000 H   0  0  0  0  0  0  0  0  0  0  0  0
   11.3138    3.7382    0.0000 H   0  0  0  0  0  0  0  0  0  0  0  0
 18  1  1  1  0  0  0
  1 62  1  0  0  0  0
  2 19  1  0  0  0  0
  2 32  1  0  0  0  0
 21  3  1  1  0  0  0
  3 33  1  0  0  0  0
 24  4  1  6  0  0  0
  4 34  1  0  0  0  0
 23  5  1  6  0  0  0
  5 66  1  0  0  0  0
 25  6  1  1  0  0  0
  6 67  1  0  0  0  0
 28  7  1  1  0  0  0
  7 35  1  0  0  0  0
 27  8  1  6  0  0  0
  8 68  1  0  0  0  0
  9 30  1  0  0  0  0
  9 36  1  0  0  0  0
 10 34  2  0  0  0  0
 11 15  1  0  0  0  0
 11 26  1  0  0  0  0
 11 31  1  0  0  0  0
 12 13  1  0  0  0  0
 12 14  1  0  0  0  0
 12 15  1  0  0  0  0
 12 21  1  6  0  0  0
 13 19  1  0  0  0  0
 13 20  1  0  0  0  0
 13 43  1  1  0  0  0
 14 17  1  0  0  0  0
 14 22  1  0  0  0  0
 14 44  1  6  0  0  0
 15 16  1  0  0  0  0
 15 45  1  6  0  0  0
 16 18  1  0  0  0  0
 16 19  1  0  0  0  0
 16 46  1  0  0  0  0
 17 18  1  0  0  0  0
 17 24  1  0  0  0  0
 17 47  1  1  0  0  0
 18 25  1  0  0  0  0
 19 48  1  0  0  0  0
 20 26  1  0  0  0  0
 20 27  1  0  0  0  0
 20 30  1  1  0  0  0
 21 29  1  0  0  0  0
 21 49  1  0  0  0  0
 22 23  1  0  0  0  0
 22 50  1  0  0  0  0
 22 51  1  0  0  0  0
 23 24  1  0  0  0  0
 23 28  1  0  0  0  0
 24 52  1  0  0  0  0
 25 28  1  0  0  0  0
 25 53  1  0  0  0  0
 26 54  1  0  0  0  0
 26 55  1  0  0  0  0
 27 29  1  0  0  0  0
 27 56  1  0  0  0  0
 28 57  1  0  0  0  0
 29 58  1  0  0  0  0
 29 59  1  0  0  0  0
 30 60  1  0  0  0  0
 30 61  1  0  0  0  0
 31 63  1  0  0  0  0
 31 64  1  0  0  0  0
 31 65  1  0  0  0  0
 32 69  1  0  0  0  0
 32 70  1  0  0  0  0
 32 71  1  0  0  0  0
 33 72  1  0  0  0  0
 33 73  1  0  0  0  0
 33 74  1  0  0  0  0
 34 37  1  0  0  0  0
 35 75  1  0  0  0  0
 35 76  1  0  0  0  0
 35 77  1  0  0  0  0
 36 78  1  0  0  0  0
 36 79  1  0  0  0  0
 36 80  1  0  0  0  0
 37 38  2  0  0  0  0
 37 39  1  0  0  0  0
 38 40  1  0  0  0  0
 38 81  1  0  0  0  0
 39 41  2  0  0  0  0
 39 82  1  0  0  0  0
 40 42  2  0  0  0  0
 40 83  1  0  0  0  0
 41 42  1  0  0  0  0
 41 84  1  0  0  0  0
 42 85  1  0  0  0  0
M  END
> <PUBCHEM_COMPOUND_CID>
122173204

> <PUBCHEM_COMPOUND_CANONICALIZED>
1

> <PUBCHEM_CACTVS_COMPLEXITY>
1090

> <PUBCHEM_CACTVS_HBOND_ACCEPTOR>
11

> <PUBCHEM_CACTVS_HBOND_DONOR>
4

> <PUBCHEM_CACTVS_ROTATABLE_BOND>
8

> <PUBCHEM_CACTVS_SUBSKEYS>
AAADcfB6PAAAAAAAAAAAAAAAAAAAAYMAAAA8YMGCB4gWAGABAAAAHgAACAAAD3zhmAYyCIMABgCIAiDSCAACAAAkAAAIiAEICMgJNjKAtRiGcQAnwAGLqYf4+P+PgAAAAAAAAADSAAaUADSAAaEADSAAAA==

> <PUBCHEM_IUPAC_OPENEYE_NAME>
[(1R,2S,3R,4R,5S,6S,7R,8R,10R,13R,14R,16R,17S,18R)-5,7,8,14-tetrahydroxy-6,16,18-trimethoxy-13-(methoxymethyl)-11-methyl-11-azahexacyclo[7.7.2.12,5.01,10.03,8.013,17]nonadecan-4-yl] benzoate

> <PUBCHEM_IUPAC_CAS_NAME>
benzoic acid [(1R,2S,3R,4R,5S,6S,7R,8R,10R,13R,14R,16R,17S,18R)-5,7,8,14-tetrahydroxy-6,16,18-trimethoxy-13-(methoxymethyl)-11-methyl-11-azahexacyclo[7.7.2.12,5.01,10.03,8.013,17]nonadecan-4-yl] ester

> <PUBCHEM_IUPAC_NAME_MARKUP>
[(1<I>R</I>,2<I>S</I>,3<I>R</I>,4<I>R</I>,5<I>S</I>,6<I>S</I>,7<I>R</I>,8<I>R</I>,10<I>R</I>,13<I>R</I>,14<I>R</I>,16<I>R</I>,17<I>S</I>,18<I>R</I>)-5,7,8,14-tetrahydroxy-6,16,18-trimethoxy-13-(methoxymethyl)-11-methyl-11-azahexacyclo[7.7.2.1<SUP>2,5</SUP>.0<SUP>1,10</SUP>.0<SUP>3,8</SUP>.0<SUP>13,17</SUP>]nonadecan-4-yl] benzoate

> <PUBCHEM_IUPAC_NAME>
[(1R,2S,3R,4R,5S,6S,7R,8R,10R,13R,14R,16R,17S,18R)-5,7,8,14-tetrahydroxy-6,16,18-trimethoxy-13-(methoxymethyl)-11-methyl-11-azahexacyclo[7.7.2.12,5.01,10.03,8.013,17]nonadecan-4-yl] benzoate

> <PUBCHEM_IUPAC_SYSTEMATIC_NAME>
[(1R,2S,3R,4R,5S,6S,7R,8R,10R,13R,14R,16R,17S,18R)-6,16,18-trimethoxy-13-(methoxymethyl)-11-methyl-5,7,8,14-tetrakis(oxidanyl)-11-azahexacyclo[7.7.2.12,5.01,10.03,8.013,17]nonadecan-4-yl] benzoate

> <PUBCHEM_IUPAC_TRADITIONAL_NAME>
benzoic acid [(1R,2S,3R,4R,5S,6S,7R,8R,10R,13R,14R,16R,17S,18R)-5,7,8,14-tetrahydroxy-6,16,18-trimethoxy-13-(methoxymethyl)-11-methyl-11-azahexacyclo[7.7.2.12,5.01,10.03,8.013,17]nonadecan-4-yl] ester

> <PUBCHEM_IUPAC_INCHI>
InChI=1S/C31H43NO10/c1-32-13-28(14-38-2)17(33)11-18(39-3)30-16-12-29(36)25(42-27(35)15-9-7-6-8-10-15)19(16)31(37,24(34)26(29)41-5)20(23(30)32)21(40-4)22(28)30/h6-10,16-26,33-34,36-37H,11-14H2,1-5H3/t16-,17+,18+,19+,20?,21-,22+,23+,24+,25+,26-,28-,29-,30+,31+/m0/s1

> <PUBCHEM_IUPAC_INCHIKEY>
PULWZCUZNRVAHT-KULHUQEMSA-N

> <PUBCHEM_XLOGP3_AA>
-0.7

> <PUBCHEM_EXACT_MASS>
589.288697

> <PUBCHEM_MOLECULAR_FORMULA>
C31H43NO10

> <PUBCHEM_MOLECULAR_WEIGHT>
589.7

> <PUBCHEM_OPENEYE_CAN_SMILES>
CN1CC2(C(CC(C34C2C(C(C31)C5(C6C4CC(C6OC(=O)C7=CC=CC=C7)(C(C5O)OC)O)O)OC)OC)O)COC

> <PUBCHEM_OPENEYE_ISO_SMILES>
CN1C[C@@]2([C@@H](C[C@H]([C@]34[C@@H]2[C@H](C([C@H]31)[C@@]5([C@@H]6[C@@H]4C[C@]([C@@H]6OC(=O)C7=CC=CC=C7)([C@H]([C@H]5O)OC)O)O)OC)OC)O)COC

> <PUBCHEM_CACTVS_TPSA>
147

> <PUBCHEM_MONOISOTOPIC_WEIGHT>
589.288697

> <PUBCHEM_TOTAL_CHARGE>
0

> <PUBCHEM_HEAVY_ATOM_COUNT>
42

> <PUBCHEM_ATOM_DEF_STEREO_COUNT>
14

> <PUBCHEM_ATOM_UDEF_STEREO_COUNT>
1

> <PUBCHEM_BOND_DEF_STEREO_COUNT>
0

> <PUBCHEM_BOND_UDEF_STEREO_COUNT>
0

> <PUBCHEM_ISOTOPIC_ATOM_COUNT>
0

> <PUBCHEM_COMPONENT_COUNT>
1

> <PUBCHEM_CACTVS_TAUTO_COUNT>
-1

> <PUBCHEM_COORDINATE_TYPE>
1
5
255

> <PUBCHEM_BONDANNOTATIONS>
18  1  5
12  21  6
13  43  5
14  44  6
15  45  6
16  19  3
17  47  5
20  30  5
21  3  5
37  38  8
37  39  8
38  40  8
39  41  8
24  4  6
40  42  8
41  42  8
23  5  6
25  6  5
28  7  5
27  8  6

$$$$
