158048
  -OEChem-08242016222D

 67 72  0     1  0  0  0  0  0999 V2000
    8.2565   -0.7026    0.0000 O   0  0  0  0  0  0  0  0  0  0  0  0
    6.1234   -1.9268    0.0000 O   0  0  0  0  0  0  0  0  0  0  0  0
    4.9163    1.8904    0.0000 O   0  0  0  0  0  0  0  0  0  0  0  0
    8.6331    1.4645    0.0000 O   0  0  0  0  0  0  0  0  0  0  0  0
    9.0340    2.3483    0.0000 O   0  0  0  0  0  0  0  0  0  0  0  0
    4.0503   -2.3448    0.0000 O   0  0  0  0  0  0  0  0  0  0  0  0
    3.7210    0.0613    0.0000 N   0  0  3  0  0  0  0  0  0  0  0  0
    5.6676    0.4566    0.0000 C   0  0  3  0  0  0  0  0  0  0  0  0
    5.6676   -0.4110    0.0000 C   0  0  3  0  0  0  0  0  0  0  0  0
    6.3459    0.9975    0.0000 C   0  0  3  0  0  0  0  0  0  0  0  0
    4.6656    0.3505    0.0000 C   0  0  3  0  0  0  0  0  0  0  0  0
    7.1918   -0.7589    0.0000 C   0  0  3  0  0  0  0  0  0  0  0  0
    7.1918    0.8044    0.0000 C   0  0  3  0  0  0  0  0  0  0  0  0
    7.5682    0.0228    0.0000 C   0  0  3  0  0  0  0  0  0  0  0  0
    6.3459   -0.9519    0.0000 C   0  0  3  0  0  0  0  0  0  0  0  0
    4.9163   -0.8448    0.0000 C   0  0  3  0  0  0  0  0  0  0  0  0
    4.9163    0.8904    0.0000 C   0  0  3  0  0  0  0  0  0  0  0  0
    6.2682    1.8616    0.0000 C   0  0  0  0  0  0  0  0  0  0  0  0
    7.0659    2.2026    0.0000 C   0  0  3  0  0  0  0  0  0  0  0  0
    7.6367    1.5492    0.0000 C   0  0  3  0  0  0  0  0  0  0  0  0
    8.2131    0.2927    0.0000 C   0  0  0  0  0  0  0  0  0  0  0  0
    3.7210   -0.6906    0.0000 C   0  0  0  0  0  0  0  0  0  0  0  0
    4.1649   -0.4110    0.0000 C   0  0  0  0  0  0  0  0  0  0  0  0
    8.2131    1.7772    0.0000 C   0  0  3  0  0  0  0  0  0  0  0  0
    4.1649    0.4566    0.0000 C   0  0  0  0  0  0  0  0  0  0  0  0
    4.9163   -1.8448    0.0000 C   0  0  0  0  0  0  0  0  0  0  0  0
    2.9170    0.6560    0.0000 C   0  0  0  0  0  0  0  0  0  0  0  0
    2.0000    0.2571    0.0000 C   0  0  0  0  0  0  0  0  0  0  0  0
    8.9498    3.3448    0.0000 C   0  0  0  0  0  0  0  0  0  0  0  0
    4.0503   -3.3448    0.0000 C   0  0  0  0  0  0  0  0  0  0  0  0
    6.2262   -0.1420    0.0000 H   0  0  0  0  0  0  0  0  0  0  0  0
    5.7758    1.2412    0.0000 H   0  0  0  0  0  0  0  0  0  0  0  0
    4.5417    0.9580    0.0000 H   0  0  0  0  0  0  0  0  0  0  0  0
    7.5783   -1.2436    0.0000 H   0  0  0  0  0  0  0  0  0  0  0  0
    7.8111    0.7766    0.0000 H   0  0  0  0  0  0  0  0  0  0  0  0
    5.7607   -1.1567    0.0000 H   0  0  0  0  0  0  0  0  0  0  0  0
    5.4532    1.2004    0.0000 H   0  0  0  0  0  0  0  0  0  0  0  0
    6.0854    2.4540    0.0000 H   0  0  0  0  0  0  0  0  0  0  0  0
    5.6598    1.7418    0.0000 H   0  0  0  0  0  0  0  0  0  0  0  0
    7.0508    2.8224    0.0000 H   0  0  0  0  0  0  0  0  0  0  0  0
    7.9168    2.1023    0.0000 H   0  0  0  0  0  0  0  0  0  0  0  0
    8.3750   -0.3058    0.0000 H   0  0  0  0  0  0  0  0  0  0  0  0
    8.8277    0.3744    0.0000 H   0  0  0  0  0  0  0  0  0  0  0  0
    3.1015   -0.6640    0.0000 H   0  0  0  0  0  0  0  0  0  0  0  0
    3.6680   -1.3083    0.0000 H   0  0  0  0  0  0  0  0  0  0  0  0
    3.5544   -0.3033    0.0000 H   0  0  0  0  0  0  0  0  0  0  0  0
    3.9529   -0.9936    0.0000 H   0  0  0  0  0  0  0  0  0  0  0  0
    8.1349    2.3923    0.0000 H   0  0  0  0  0  0  0  0  0  0  0  0
    3.9529    1.0392    0.0000 H   0  0  0  0  0  0  0  0  0  0  0  0
    3.5544    0.3489    0.0000 H   0  0  0  0  0  0  0  0  0  0  0  0
    5.1283   -2.4274    0.0000 H   0  0  0  0  0  0  0  0  0  0  0  0
    5.5269   -1.7371    0.0000 H   0  0  0  0  0  0  0  0  0  0  0  0
    8.8594   -0.5579    0.0000 H   0  0  0  0  0  0  0  0  0  0  0  0
    3.3666    1.0829    0.0000 H   0  0  0  0  0  0  0  0  0  0  0  0
    2.5747    1.1730    0.0000 H   0  0  0  0  0  0  0  0  0  0  0  0
    6.5779   -2.3486    0.0000 H   0  0  0  0  0  0  0  0  0  0  0  0
    4.3793    2.2004    0.0000 H   0  0  0  0  0  0  0  0  0  0  0  0
    8.8966    0.9033    0.0000 H   0  0  0  0  0  0  0  0  0  0  0  0
    1.7527    0.8256    0.0000 H   0  0  0  0  0  0  0  0  0  0  0  0
    1.4315    0.0098    0.0000 H   0  0  0  0  0  0  0  0  0  0  0  0
    2.2473   -0.3114    0.0000 H   0  0  0  0  0  0  0  0  0  0  0  0
    9.5676    3.3970    0.0000 H   0  0  0  0  0  0  0  0  0  0  0  0
    8.8976    3.9626    0.0000 H   0  0  0  0  0  0  0  0  0  0  0  0
    8.3320    3.2926    0.0000 H   0  0  0  0  0  0  0  0  0  0  0  0
    3.4303   -3.3448    0.0000 H   0  0  0  0  0  0  0  0  0  0  0  0
    4.0503   -3.9648    0.0000 H   0  0  0  0  0  0  0  0  0  0  0  0
    4.6703   -3.3448    0.0000 H   0  0  0  0  0  0  0  0  0  0  0  0
  1 14  1  0  0  0  0
  1 53  1  0  0  0  0
  2 15  1  0  0  0  0
  2 56  1  0  0  0  0
  3 17  1  0  0  0  0
  3 57  1  0  0  0  0
  4 20  1  0  0  0  0
  4 58  1  0  0  0  0
  5 24  1  0  0  0  0
  5 29  1  0  0  0  0
  6 26  1  0  0  0  0
  6 30  1  0  0  0  0
  7 11  1  0  0  0  0
  7 22  1  0  0  0  0
  7 27  1  0  0  0  0
  8  9  1  0  0  0  0
  8 10  1  0  0  0  0
  8 11  1  0  0  0  0
  8 17  1  0  0  0  0
  9 15  1  0  0  0  0
  9 16  1  0  0  0  0
  9 31  1  0  0  0  0
 10 13  1  0  0  0  0
 10 18  1  0  0  0  0
 10 32  1  0  0  0  0
 11 12  1  0  0  0  0
 11 33  1  0  0  0  0
 12 14  1  0  0  0  0
 12 15  1  0  0  0  0
 12 34  1  0  0  0  0
 13 14  1  0  0  0  0
 13 20  1  0  0  0  0
 13 35  1  0  0  0  0
 14 21  1  0  0  0  0
 15 36  1  0  0  0  0
 16 22  1  0  0  0  0
 16 23  1  0  0  0  0
 16 26  1  0  0  0  0
 17 25  1  0  0  0  0
 17 37  1  0  0  0  0
 18 19  1  0  0  0  0
 18 38  1  0  0  0  0
 18 39  1  0  0  0  0
 19 20  1  0  0  0  0
 19 24  1  0  0  0  0
 19 40  1  0  0  0  0
 20 41  1  0  0  0  0
 21 24  1  0  0  0  0
 21 42  1  0  0  0  0
 21 43  1  0  0  0  0
 22 44  1  0  0  0  0
 22 45  1  0  0  0  0
 23 25  1  0  0  0  0
 23 46  1  0  0  0  0
 23 47  1  0  0  0  0
 24 48  1  0  0  0  0
 25 49  1  0  0  0  0
 25 50  1  0  0  0  0
 26 51  1  0  0  0  0
 26 52  1  0  0  0  0
 27 28  1  0  0  0  0
 27 54  1  0  0  0  0
 27 55  1  0  0  0  0
 28 59  1  0  0  0  0
 28 60  1  0  0  0  0
 28 61  1  0  0  0  0
 29 62  1  0  0  0  0
 29 63  1  0  0  0  0
 29 64  1  0  0  0  0
 30 65  1  0  0  0  0
 30 66  1  0  0  0  0
 30 67  1  0  0  0  0
M  END
> <PUBCHEM_COMPOUND_CID>
158048

> <PUBCHEM_COMPOUND_CANONICALIZED>
1

> <PUBCHEM_CACTVS_COMPLEXITY>
737

> <PUBCHEM_CACTVS_HBOND_ACCEPTOR>
7

> <PUBCHEM_CACTVS_HBOND_DONOR>
4

> <PUBCHEM_CACTVS_ROTATABLE_BOND>
4

> <PUBCHEM_CACTVS_SUBSKEYS>
AAADcfB6OAAAAAAAAAAAAAAAAAAAAYMAAAA8YMEAB4gWAGAAAAAAHgAACAAAD3zhgAYCAAMABgAAAAAAAAAAAAAAAAAAAAAIAAAAEAIAgAAEQAAHAACAAAHw8P8PgAAAAAAAAADQAAaUADQAAaEADQAAAA==

> <PUBCHEM_IUPAC_OPENEYE_NAME>
11-ethyl-6-methoxy-13-(methoxymethyl)-11-azahexacyclo[7.7.2.12,5.01,10.03,8.013,17]nonadecane-4,8,16,18-tetrol

> <PUBCHEM_IUPAC_CAS_NAME>
11-ethyl-6-methoxy-13-(methoxymethyl)-11-azahexacyclo[7.7.2.12,5.01,10.03,8.013,17]nonadecane-4,8,16,18-tetrol

> <PUBCHEM_IUPAC_NAME_MARKUP>
11-ethyl-6-methoxy-13-(methoxymethyl)-11-azahexacyclo[7.7.2.1<SUP>2,5</SUP>.0<SUP>1,10</SUP>.0<SUP>3,8</SUP>.0<SUP>13,17</SUP>]nonadecane-4,8,16,18-tetrol

> <PUBCHEM_IUPAC_NAME>
11-ethyl-6-methoxy-13-(methoxymethyl)-11-azahexacyclo[7.7.2.12,5.01,10.03,8.013,17]nonadecane-4,8,16,18-tetrol

> <PUBCHEM_IUPAC_SYSTEMATIC_NAME>
11-ethyl-6-methoxy-13-(methoxymethyl)-11-azahexacyclo[7.7.2.12,5.01,10.03,8.013,17]nonadecane-4,8,16,18-tetrol

> <PUBCHEM_IUPAC_TRADITIONAL_NAME>
11-ethyl-6-methoxy-13-(methoxymethyl)-11-azahexacyclo[7.7.2.12,5.01,10.03,8.013,17]nonadecane-4,8,16,18-tetrol

> <PUBCHEM_IUPAC_INCHI>
InChI=1S/C23H37NO6/c1-4-24-9-21(10-29-2)6-5-14(25)23-12-7-11-13(30-3)8-22(28,15(12)17(11)26)16(20(23)24)18(27)19(21)23/h11-20,25-28H,4-10H2,1-3H3

> <PUBCHEM_IUPAC_INCHIKEY>
FNRMXORIKJLSGX-UHFFFAOYSA-N

> <PUBCHEM_XLOGP3_AA>
-0.6

> <PUBCHEM_EXACT_MASS>
423.262088

> <PUBCHEM_MOLECULAR_FORMULA>
C23H37NO6

> <PUBCHEM_MOLECULAR_WEIGHT>
423.5

> <PUBCHEM_OPENEYE_CAN_SMILES>
CCN1CC2(CCC(C34C2C(C(C31)C5(CC(C6CC4C5C6O)OC)O)O)O)COC

> <PUBCHEM_OPENEYE_ISO_SMILES>
CCN1CC2(CCC(C34C2C(C(C31)C5(CC(C6CC4C5C6O)OC)O)O)O)COC

> <PUBCHEM_CACTVS_TPSA>
103

> <PUBCHEM_MONOISOTOPIC_WEIGHT>
423.262088

> <PUBCHEM_TOTAL_CHARGE>
0

> <PUBCHEM_HEAVY_ATOM_COUNT>
30

> <PUBCHEM_ATOM_DEF_STEREO_COUNT>
0

> <PUBCHEM_ATOM_UDEF_STEREO_COUNT>
13

> <PUBCHEM_BOND_DEF_STEREO_COUNT>
0

> <PUBCHEM_BOND_UDEF_STEREO_COUNT>
0

> <PUBCHEM_ISOTOPIC_ATOM_COUNT>
0

> <PUBCHEM_COMPONENT_COUNT>
1

> <PUBCHEM_CACTVS_TAUTO_COUNT>
-1

> <PUBCHEM_COORDINATE_TYPE>
1
5
255

> <PUBCHEM_BONDANNOTATIONS>
14  1  3
10  18  3
12  15  3
13  20  3
16  26  3
19  18  3
15  2  3
17  3  3
20  4  3
24  5  3
11  7  3
8  17  3
9  15  3

$$$$
