102054463
  -OEChem-08282012352D

 95100  0     1  0  0  0  0  0999 V2000
    4.3362   -1.5600    0.0000 O   0  0  0  0  0  0  0  0  0  0  0  0
    6.9343    0.9400    0.0000 O   0  0  0  0  0  0  0  0  0  0  0  0
    6.0682   -1.5600    0.0000 O   0  0  0  0  0  0  0  0  0  0  0  0
    6.0682   -3.5600    0.0000 O   0  0  0  0  0  0  0  0  0  0  0  0
    7.8003   -1.5600    0.0000 O   0  0  0  0  0  0  0  0  0  0  0  0
    4.3362   -4.5600    0.0000 O   0  0  0  0  0  0  0  0  0  0  0  0
    2.6042   -3.5600    0.0000 O   0  0  0  0  0  0  0  0  0  0  0  0
    9.5323   -0.5600    0.0000 O   0  0  0  0  0  0  0  0  0  0  0  0
    7.8003    2.4400    0.0000 O   0  0  0  0  0  0  0  0  0  0  0  0
    9.5323    1.4400    0.0000 O   0  0  0  0  0  0  0  0  0  0  0  0
    2.6042   -0.5600    0.0000 O   0  0  0  0  0  0  0  0  0  0  0  0
    6.0682    4.4400    0.0000 O   0  0  0  0  0  0  0  0  0  0  0  0
    6.9343   -2.0600    0.0000 O   0  0  0  0  0  0  0  0  0  0  0  0
    6.0682    1.4400    0.0000 O   0  0  0  0  0  0  0  0  0  0  0  0
    4.3198    1.4054    0.0000 O   0  0  0  0  0  0  0  0  0  0  0  0
   10.3984   -3.0600    0.0000 O   0  0  0  0  0  0  0  0  0  0  0  0
    8.6663   -6.0600    0.0000 O   0  0  0  0  0  0  0  0  0  0  0  0
   10.3984   -5.0600    0.0000 O   0  0  0  0  0  0  0  0  0  0  0  0
    2.5381    4.4642    0.0000 O   0  0  0  0  0  0  0  0  0  0  0  0
   10.3984    3.9400    0.0000 O   0  0  0  0  0  0  0  0  0  0  0  0
   10.3984    5.9400    0.0000 O   0  0  0  0  0  0  0  0  0  0  0  0
    6.9343   -0.0600    0.0000 C   0  0  2  0  0  0  0  0  0  0  0  0
    5.2022   -3.0600    0.0000 C   0  0  2  0  0  0  0  0  0  0  0  0
    7.8003   -0.5600    0.0000 C   0  0  1  0  0  0  0  0  0  0  0  0
    4.3362   -3.5600    0.0000 C   0  0  1  0  0  0  0  0  0  0  0  0
    5.2022   -2.0600    0.0000 C   0  0  1  0  0  0  0  0  0  0  0  0
    3.4702   -3.0600    0.0000 C   0  0  2  0  0  0  0  0  0  0  0  0
    8.6663   -0.0600    0.0000 C   0  0  2  0  0  0  0  0  0  0  0  0
    3.4702   -2.0600    0.0000 C   0  0  2  0  0  0  0  0  0  0  0  0
    8.6663    0.9400    0.0000 C   0  0  1  0  0  0  0  0  0  0  0  0
    6.0682   -0.5600    0.0000 C   0  0  0  0  0  0  0  0  0  0  0  0
    7.8003    1.4400    0.0000 C   0  0  2  0  0  0  0  0  0  0  0  0
    2.6042   -1.5600    0.0000 C   0  0  0  0  0  0  0  0  0  0  0  0
    6.9343   -3.0600    0.0000 C   0  0  0  0  0  0  0  0  0  0  0  0
    6.9343    2.9400    0.0000 C   0  0  0  0  0  0  0  0  0  0  0  0
    6.9343    3.9400    0.0000 C   0  0  0  0  0  0  0  0  0  0  0  0
    7.8003   -3.5600    0.0000 C   0  0  0  0  0  0  0  0  0  0  0  0
    6.0682    2.4400    0.0000 C   0  0  0  0  0  0  0  0  0  0  0  0
    5.2022    2.9400    0.0000 C   0  0  0  0  0  0  0  0  0  0  0  0
    7.8003    4.4400    0.0000 C   0  0  0  0  0  0  0  0  0  0  0  0
    5.2022    3.9400    0.0000 C   0  0  0  0  0  0  0  0  0  0  0  0
    7.8003   -4.5600    0.0000 C   0  0  0  0  0  0  0  0  0  0  0  0
    8.6663   -3.0600    0.0000 C   0  0  0  0  0  0  0  0  0  0  0  0
    4.3083    2.4053    0.0000 C   0  0  0  0  0  0  0  0  0  0  0  0
    9.5323   -3.5600    0.0000 C   0  0  0  0  0  0  0  0  0  0  0  0
    8.6663   -5.0600    0.0000 C   0  0  0  0  0  0  0  0  0  0  0  0
    4.3083    4.4747    0.0000 C   0  0  0  0  0  0  0  0  0  0  0  0
    8.6663    3.9400    0.0000 C   0  0  0  0  0  0  0  0  0  0  0  0
    7.8003    5.4400    0.0000 C   0  0  0  0  0  0  0  0  0  0  0  0
    9.5323   -4.5600    0.0000 C   0  0  0  0  0  0  0  0  0  0  0  0
    3.4022    2.9192    0.0000 C   0  0  0  0  0  0  0  0  0  0  0  0
    3.4022    3.9608    0.0000 C   0  0  0  0  0  0  0  0  0  0  0  0
    9.5323    4.4400    0.0000 C   0  0  0  0  0  0  0  0  0  0  0  0
    8.6663    5.9400    0.0000 C   0  0  0  0  0  0  0  0  0  0  0  0
    9.5323    5.4400    0.0000 C   0  0  0  0  0  0  0  0  0  0  0  0
   11.2644   -3.5600    0.0000 C   0  0  0  0  0  0  0  0  0  0  0  0
    7.8003   -6.5600    0.0000 C   0  0  0  0  0  0  0  0  0  0  0  0
    6.3973    0.2500    0.0000 H   0  0  0  0  0  0  0  0  0  0  0  0
    5.2022   -3.6800    0.0000 H   0  0  0  0  0  0  0  0  0  0  0  0
    8.3372   -0.8700    0.0000 H   0  0  0  0  0  0  0  0  0  0  0  0
    3.7993   -3.8700    0.0000 H   0  0  0  0  0  0  0  0  0  0  0  0
    5.2022   -1.4400    0.0000 H   0  0  0  0  0  0  0  0  0  0  0  0
    2.9332   -2.7500    0.0000 H   0  0  0  0  0  0  0  0  0  0  0  0
    9.2033    0.2500    0.0000 H   0  0  0  0  0  0  0  0  0  0  0  0
    3.4702   -1.4400    0.0000 H   0  0  0  0  0  0  0  0  0  0  0  0
    9.2033    0.6300    0.0000 H   0  0  0  0  0  0  0  0  0  0  0  0
    5.8562    0.0226    0.0000 H   0  0  0  0  0  0  0  0  0  0  0  0
    5.4577   -0.6677    0.0000 H   0  0  0  0  0  0  0  0  0  0  0  0
    8.3372    1.7500    0.0000 H   0  0  0  0  0  0  0  0  0  0  0  0
    1.9936   -1.4523    0.0000 H   0  0  0  0  0  0  0  0  0  0  0  0
    2.3921   -2.1426    0.0000 H   0  0  0  0  0  0  0  0  0  0  0  0
    8.3372   -1.8700    0.0000 H   0  0  0  0  0  0  0  0  0  0  0  0
    3.7993   -4.8700    0.0000 H   0  0  0  0  0  0  0  0  0  0  0  0
    2.0672   -3.2500    0.0000 H   0  0  0  0  0  0  0  0  0  0  0  0
    9.5323   -1.1800    0.0000 H   0  0  0  0  0  0  0  0  0  0  0  0
   10.0693    1.1300    0.0000 H   0  0  0  0  0  0  0  0  0  0  0  0
    2.0672   -0.2500    0.0000 H   0  0  0  0  0  0  0  0  0  0  0  0
    7.2634   -4.8700    0.0000 H   0  0  0  0  0  0  0  0  0  0  0  0
    8.6663   -2.4400    0.0000 H   0  0  0  0  0  0  0  0  0  0  0  0
    4.3154    5.0946    0.0000 H   0  0  0  0  0  0  0  0  0  0  0  0
    8.6663    3.3200    0.0000 H   0  0  0  0  0  0  0  0  0  0  0  0
    7.2634    5.7500    0.0000 H   0  0  0  0  0  0  0  0  0  0  0  0
    2.8665    2.6071    0.0000 H   0  0  0  0  0  0  0  0  0  0  0  0
    8.6663    6.5600    0.0000 H   0  0  0  0  0  0  0  0  0  0  0  0
    3.7865    1.0892    0.0000 H   0  0  0  0  0  0  0  0  0  0  0  0
   10.3984   -5.6800    0.0000 H   0  0  0  0  0  0  0  0  0  0  0  0
    2.0000    4.1562    0.0000 H   0  0  0  0  0  0  0  0  0  0  0  0
   10.9544   -4.0969    0.0000 H   0  0  0  0  0  0  0  0  0  0  0  0
   11.8013   -3.8700    0.0000 H   0  0  0  0  0  0  0  0  0  0  0  0
   11.5744   -3.0231    0.0000 H   0  0  0  0  0  0  0  0  0  0  0  0
    7.4903   -6.0231    0.0000 H   0  0  0  0  0  0  0  0  0  0  0  0
    7.2634   -6.8700    0.0000 H   0  0  0  0  0  0  0  0  0  0  0  0
    8.1103   -7.0969    0.0000 H   0  0  0  0  0  0  0  0  0  0  0  0
   10.9353    4.2500    0.0000 H   0  0  0  0  0  0  0  0  0  0  0  0
   10.3984    6.5600    0.0000 H   0  0  0  0  0  0  0  0  0  0  0  0
  1 26  1  0  0  0  0
  1 29  1  0  0  0  0
  2 22  1  0  0  0  0
  2 32  1  0  0  0  0
 26  3  1  1  0  0  0
  3 31  1  0  0  0  0
 23  4  1  6  0  0  0
  4 34  1  0  0  0  0
 24  5  1  1  0  0  0
  5 72  1  0  0  0  0
 25  6  1  6  0  0  0
  6 73  1  0  0  0  0
 27  7  1  1  0  0  0
  7 74  1  0  0  0  0
 28  8  1  6  0  0  0
  8 75  1  0  0  0  0
 32  9  1  6  0  0  0
  9 35  1  0  0  0  0
 30 10  1  1  0  0  0
 10 76  1  0  0  0  0
 11 33  1  0  0  0  0
 11 77  1  0  0  0  0
 12 36  1  0  0  0  0
 12 41  1  0  0  0  0
 13 34  2  0  0  0  0
 14 38  2  0  0  0  0
 15 44  1  0  0  0  0
 15 85  1  0  0  0  0
 16 45  1  0  0  0  0
 16 56  1  0  0  0  0
 17 46  1  0  0  0  0
 17 57  1  0  0  0  0
 18 50  1  0  0  0  0
 18 86  1  0  0  0  0
 19 52  1  0  0  0  0
 19 87  1  0  0  0  0
 20 53  1  0  0  0  0
 20 94  1  0  0  0  0
 21 55  1  0  0  0  0
 21 95  1  0  0  0  0
 22 24  1  0  0  0  0
 22 31  1  6  0  0  0
 22 58  1  0  0  0  0
 23 25  1  0  0  0  0
 23 26  1  0  0  0  0
 23 59  1  0  0  0  0
 24 28  1  0  0  0  0
 24 60  1  0  0  0  0
 25 27  1  0  0  0  0
 25 61  1  0  0  0  0
 26 62  1  0  0  0  0
 27 29  1  0  0  0  0
 27 63  1  0  0  0  0
 28 30  1  0  0  0  0
 28 64  1  0  0  0  0
 29 33  1  6  0  0  0
 29 65  1  0  0  0  0
 30 32  1  0  0  0  0
 30 66  1  0  0  0  0
 31 67  1  0  0  0  0
 31 68  1  0  0  0  0
 32 69  1  0  0  0  0
 33 70  1  0  0  0  0
 33 71  1  0  0  0  0
 34 37  1  0  0  0  0
 35 36  2  0  0  0  0
 35 38  1  0  0  0  0
 36 40  1  0  0  0  0
 37 42  2  0  0  0  0
 37 43  1  0  0  0  0
 38 39  1  0  0  0  0
 39 41  1  0  0  0  0
 39 44  2  0  0  0  0
 40 48  2  0  0  0  0
 40 49  1  0  0  0  0
 41 47  2  0  0  0  0
 42 46  1  0  0  0  0
 42 78  1  0  0  0  0
 43 45  2  0  0  0  0
 43 79  1  0  0  0  0
 44 51  1  0  0  0  0
 45 50  1  0  0  0  0
 46 50  2  0  0  0  0
 47 52  1  0  0  0  0
 47 80  1  0  0  0  0
 48 53  1  0  0  0  0
 48 81  1  0  0  0  0
 49 54  2  0  0  0  0
 49 82  1  0  0  0  0
 51 52  2  0  0  0  0
 51 83  1  0  0  0  0
 53 55  2  0  0  0  0
 54 55  1  0  0  0  0
 54 84  1  0  0  0  0
 56 88  1  0  0  0  0
 56 89  1  0  0  0  0
 56 90  1  0  0  0  0
 57 91  1  0  0  0  0
 57 92  1  0  0  0  0
 57 93  1  0  0  0  0
M  END
> <PUBCHEM_COMPOUND_CID>
102054463

> <PUBCHEM_COMPOUND_CANONICALIZED>
1

> <PUBCHEM_CACTVS_COMPLEXITY>
1400

> <PUBCHEM_CACTVS_HBOND_ACCEPTOR>
21

> <PUBCHEM_CACTVS_HBOND_DONOR>
11

> <PUBCHEM_CACTVS_ROTATABLE_BOND>
12

> <PUBCHEM_CACTVS_SUBSKEYS>
AAADcfB8PgAAAAAAAAAAAAAAAAAAAAAAAAA0aMECAAAAAACBUAAAGgAACAAADBSwmAMyDoAABgCIAqDSCAICCAAkIAAIiAFGiMgdNzaGNR6ieWOl4BUPuYfK7LzOIAABCAAIQABAAAIQABCAAAAAAAAAAA==

> <PUBCHEM_IUPAC_OPENEYE_NAME>
[(2R,3R,4R,5R,6S)-2-[[(2S,3R,4R,5S,6R)-6-[2-(3,4-dihydroxyphenyl)-5,7-dihydroxy-4-oxo-chromen-3-yl]oxy-3,4,5-trihydroxy-tetrahydropyran-2-yl]methoxy]-4,5-dihydroxy-6-(hydroxymethyl)tetrahydropyran-3-yl] 4-hydroxy-3,5-dimethoxy-benzoate

> <PUBCHEM_IUPAC_CAS_NAME>
4-hydroxy-3,5-dimethoxybenzoic acid [(2R,3R,4R,5R,6S)-2-[[(2S,3R,4R,5S,6R)-6-[[2-(3,4-dihydroxyphenyl)-5,7-dihydroxy-4-oxo-1-benzopyran-3-yl]oxy]-3,4,5-trihydroxy-2-oxanyl]methoxy]-4,5-dihydroxy-6-(hydroxymethyl)-3-oxanyl] ester

> <PUBCHEM_IUPAC_NAME_MARKUP>
[(2<I>R</I>,3<I>R</I>,4<I>R</I>,5<I>R</I>,6<I>S</I>)-2-[[(2<I>S</I>,3<I>R</I>,4<I>R</I>,5<I>S</I>,6<I>R</I>)-6-[2-(3,4-dihydroxyphenyl)-5,7-dihydroxy-4-oxochromen-3-yl]oxy-3,4,5-trihydroxyoxan-2-yl]methoxy]-4,5-dihydroxy-6-(hydroxymethyl)oxan-3-yl] 4-hydroxy-3,5-dimethoxybenzoate

> <PUBCHEM_IUPAC_NAME>
[(2R,3R,4R,5R,6S)-2-[[(2S,3R,4R,5S,6R)-6-[2-(3,4-dihydroxyphenyl)-5,7-dihydroxy-4-oxochromen-3-yl]oxy-3,4,5-trihydroxyoxan-2-yl]methoxy]-4,5-dihydroxy-6-(hydroxymethyl)oxan-3-yl] 4-hydroxy-3,5-dimethoxybenzoate

> <PUBCHEM_IUPAC_SYSTEMATIC_NAME>
[(2R,3R,4R,5R,6S)-2-[[(2S,3R,4R,5S,6R)-6-[2-[3,4-bis(oxidanyl)phenyl]-5,7-bis(oxidanyl)-4-oxidanylidene-chromen-3-yl]oxy-3,4,5-tris(oxidanyl)oxan-2-yl]methoxy]-6-(hydroxymethyl)-4,5-bis(oxidanyl)oxan-3-yl] 3,5-dimethoxy-4-oxidanyl-benzoate

> <PUBCHEM_IUPAC_TRADITIONAL_NAME>
4-hydroxy-3,5-dimethoxy-benzoic acid [(2R,3R,4R,5R,6S)-2-[[(2S,3R,4R,5S,6R)-6-[2-(3,4-dihydroxyphenyl)-5,7-dihydroxy-4-keto-chromen-3-yl]oxy-3,4,5-trihydroxy-tetrahydropyran-2-yl]methoxy]-4,5-dihydroxy-6-methylol-tetrahydropyran-3-yl] ester

> <PUBCHEM_IUPAC_INCHI>
InChI=1S/C36H38O21/c1-50-19-6-13(7-20(51-2)24(19)42)34(49)56-33-29(47)25(43)21(10-37)54-36(33)52-11-22-26(44)28(46)30(48)35(55-22)57-32-27(45)23-17(41)8-14(38)9-18(23)53-31(32)12-3-4-15(39)16(40)5-12/h3-9,21-22,25-26,28-30,33,35-44,46-48H,10-11H2,1-2H3/t21-,22-,25-,26-,28+,29+,30-,33+,35+,36+/m0/s1

> <PUBCHEM_IUPAC_INCHIKEY>
FCAOFPYHXZKAIJ-GTBGZMSISA-N

> <PUBCHEM_XLOGP3_AA>
0

> <PUBCHEM_EXACT_MASS>
806.190558

> <PUBCHEM_MOLECULAR_FORMULA>
C36H38O21

> <PUBCHEM_MOLECULAR_WEIGHT>
806.7

> <PUBCHEM_OPENEYE_CAN_SMILES>
COC1=CC(=CC(=C1O)OC)C(=O)OC2C(C(C(OC2OCC3C(C(C(C(O3)OC4=C(OC5=CC(=CC(=C5C4=O)O)O)C6=CC(=C(C=C6)O)O)O)O)O)CO)O)O

> <PUBCHEM_OPENEYE_ISO_SMILES>
COC1=CC(=CC(=C1O)OC)C(=O)O[C@@H]2[C@@H]([C@H]([C@@H](O[C@H]2OC[C@H]3[C@@H]([C@H]([C@@H]([C@H](O3)OC4=C(OC5=CC(=CC(=C5C4=O)O)O)C6=CC(=C(C=C6)O)O)O)O)O)CO)O)O

> <PUBCHEM_CACTVS_TPSA>
331

> <PUBCHEM_MONOISOTOPIC_WEIGHT>
806.190558

> <PUBCHEM_TOTAL_CHARGE>
0

> <PUBCHEM_HEAVY_ATOM_COUNT>
57

> <PUBCHEM_ATOM_DEF_STEREO_COUNT>
10

> <PUBCHEM_ATOM_UDEF_STEREO_COUNT>
0

> <PUBCHEM_BOND_DEF_STEREO_COUNT>
0

> <PUBCHEM_BOND_UDEF_STEREO_COUNT>
0

> <PUBCHEM_ISOTOPIC_ATOM_COUNT>
0

> <PUBCHEM_COMPONENT_COUNT>
1

> <PUBCHEM_CACTVS_TAUTO_COUNT>
-1

> <PUBCHEM_COORDINATE_TYPE>
1
5
255

> <PUBCHEM_BONDANNOTATIONS>
30  10  5
12  36  8
12  41  8
22  31  6
29  33  6
26  3  5
35  36  8
35  38  8
37  42  8
37  43  8
38  39  8
39  41  8
39  44  8
23  4  6
40  48  8
40  49  8
41  47  8
42  46  8
43  45  8
44  51  8
45  50  8
46  50  8
47  52  8
48  53  8
49  54  8
24  5  5
51  52  8
53  55  8
54  55  8
25  6  6
27  7  5
28  8  6
32  9  6

$$$$
