146673054
  -OEChem-08282010142D

 96102  0     1  0  0  0  0  0999 V2000
    9.4066   -0.5227    0.0000 O   0  0  0  0  0  0  0  0  0  0  0  0
    6.7225   -3.1720    0.0000 O   0  0  0  0  0  0  0  0  0  0  0  0
    4.9905   -3.1720    0.0000 O   0  0  0  0  0  0  0  0  0  0  0  0
    6.7225   -5.1720    0.0000 O   0  0  0  0  0  0  0  0  0  0  0  0
    4.9905   -6.1720    0.0000 O   0  0  0  0  0  0  0  0  0  0  0  0
    3.2584   -5.1720    0.0000 O   0  0  0  0  0  0  0  0  0  0  0  0
    4.5301    4.5239    0.0000 N   0  0  3  0  0  0  0  0  0  0  0  0
    6.4145    2.5781    0.0000 C   0  0  2  0  0  0  0  0  0  0  0  0
    6.7593    1.0060    0.0000 C   0  0  1  0  0  0  0  0  0  0  0  0
    7.4095    2.4782    0.0000 C   0  0  2  0  0  0  0  0  0  0  0  0
    7.6182    1.5063    0.0000 C   0  0  2  0  0  0  0  0  0  0  0  0
    6.0035    3.4897    0.0000 C   0  0  1  0  0  0  0  0  0  0  0  0
    6.7473   -0.0294    0.0000 C   0  0  2  0  0  0  0  0  0  0  0  0
    6.0168    1.6670    0.0000 C   0  0  0  0  0  0  0  0  0  0  0  0
    6.5874    4.3015    0.0000 C   0  0  1  0  0  0  0  0  0  0  0  0
    7.9935    3.2900    0.0000 C   0  0  0  0  0  0  0  0  0  0  0  0
    7.6420   -0.5506    0.0000 C   0  0  1  0  0  0  0  0  0  0  0  0
    7.5824    4.2016    0.0000 C   0  0  0  0  0  0  0  0  0  0  0  0
    8.5248    1.0060    0.0000 C   0  0  0  0  0  0  0  0  0  0  0  0
    6.1740    5.2575    0.0000 C   0  0  1  0  0  0  0  0  0  0  0  0
    4.9656    3.5777    0.0000 C   0  0  0  0  0  0  0  0  0  0  0  0
    5.8030   -0.5506    0.0000 C   0  0  0  0  0  0  0  0  0  0  0  0
    5.1384    5.3695    0.0000 C   0  0  2  0  0  0  0  0  0  0  0  0
    8.5368   -0.0294    0.0000 C   0  0  0  0  0  0  0  0  0  0  0  0
    7.6545   -1.6291    0.0000 C   0  0  0  0  0  0  0  0  0  0  0  0
    5.8832    0.4739    0.0000 C   0  0  0  0  0  0  0  0  0  0  0  0
    5.7905   -1.6291    0.0000 C   0  0  0  0  0  0  0  0  0  0  0  0
    6.7225   -2.1720    0.0000 C   0  0  1  0  0  0  0  0  0  0  0  0
    4.7077    6.3654    0.0000 C   0  0  0  0  0  0  0  0  0  0  0  0
    3.4490    4.6156    0.0000 C   0  0  0  0  0  0  0  0  0  0  0  0
    6.7673    6.0625    0.0000 C   0  0  0  0  0  0  0  0  0  0  0  0
    2.9954    5.6012    0.0000 C   0  0  2  0  0  0  0  0  0  0  0  0
    3.6290    6.4820    0.0000 C   0  0  0  0  0  0  0  0  0  0  0  0
    2.0000    5.6972    0.0000 C   0  0  0  0  0  0  0  0  0  0  0  0
    5.8565   -3.6720    0.0000 C   0  0  2  0  0  0  0  0  0  0  0  0
    5.8565   -4.6720    0.0000 C   0  0  1  0  0  0  0  0  0  0  0  0
    4.9905   -5.1720    0.0000 C   0  0  2  0  0  0  0  0  0  0  0  0
    4.1245   -3.6720    0.0000 C   0  0  1  0  0  0  0  0  0  0  0  0
    4.1245   -4.6720    0.0000 C   0  0  1  0  0  0  0  0  0  0  0  0
    3.2584   -3.1720    0.0000 C   0  0  0  0  0  0  0  0  0  0  0  0
    3.2584   -2.1720    0.0000 C   0  0  0  0  0  0  0  0  0  0  0  0
    5.5645    2.5730    0.0000 H   0  0  0  0  0  0  0  0  0  0  0  0
    5.9817    0.6626    0.0000 H   0  0  0  0  0  0  0  0  0  0  0  0
    8.2415    2.3044    0.0000 H   0  0  0  0  0  0  0  0  0  0  0  0
    8.3005    2.0133    0.0000 H   0  0  0  0  0  0  0  0  0  0  0  0
    5.5124    2.7959    0.0000 H   0  0  0  0  0  0  0  0  0  0  0  0
    5.4778    1.9734    0.0000 H   0  0  0  0  0  0  0  0  0  0  0  0
    5.6555    1.1632    0.0000 H   0  0  0  0  0  0  0  0  0  0  0  0
    7.0891    4.9876    0.0000 H   0  0  0  0  0  0  0  0  0  0  0  0
    8.4263    2.8461    0.0000 H   0  0  0  0  0  0  0  0  0  0  0  0
    8.5058    3.6391    0.0000 H   0  0  0  0  0  0  0  0  0  0  0  0
    8.3814   -0.9699    0.0000 H   0  0  0  0  0  0  0  0  0  0  0  0
    8.1833    4.3545    0.0000 H   0  0  0  0  0  0  0  0  0  0  0  0
    7.5363    4.8199    0.0000 H   0  0  0  0  0  0  0  0  0  0  0  0
    9.1368    0.9069    0.0000 H   0  0  0  0  0  0  0  0  0  0  0  0
    8.7271    1.5920    0.0000 H   0  0  0  0  0  0  0  0  0  0  0  0
    6.7900    5.1873    0.0000 H   0  0  0  0  0  0  0  0  0  0  0  0
    4.3663    3.4187    0.0000 H   0  0  0  0  0  0  0  0  0  0  0  0
    5.0197    2.9600    0.0000 H   0  0  0  0  0  0  0  0  0  0  0  0
    5.6007    0.0355    0.0000 H   0  0  0  0  0  0  0  0  0  0  0  0
    5.1910   -0.6496    0.0000 H   0  0  0  0  0  0  0  0  0  0  0  0
    5.6427    6.0537    0.0000 H   0  0  0  0  0  0  0  0  0  0  0  0
    7.8703   -2.2104    0.0000 H   0  0  0  0  0  0  0  0  0  0  0  0
    8.2641   -1.5160    0.0000 H   0  0  0  0  0  0  0  0  0  0  0  0
    6.1953    1.0096    0.0000 H   0  0  0  0  0  0  0  0  0  0  0  0
    5.3475    0.7860    0.0000 H   0  0  0  0  0  0  0  0  0  0  0  0
    5.5712   -0.0618    0.0000 H   0  0  0  0  0  0  0  0  0  0  0  0
    5.1810   -1.5160    0.0000 H   0  0  0  0  0  0  0  0  0  0  0  0
    5.5748   -2.2104    0.0000 H   0  0  0  0  0  0  0  0  0  0  0  0
    7.2601   -2.4810    0.0000 H   0  0  0  0  0  0  0  0  0  0  0  0
    5.3105    6.5104    0.0000 H   0  0  0  0  0  0  0  0  0  0  0  0
    4.6679    6.9841    0.0000 H   0  0  0  0  0  0  0  0  0  0  0  0
    2.8497    4.4566    0.0000 H   0  0  0  0  0  0  0  0  0  0  0  0
    3.5031    3.9980    0.0000 H   0  0  0  0  0  0  0  0  0  0  0  0
    7.2664    5.6946    0.0000 H   0  0  0  0  0  0  0  0  0  0  0  0
    7.1351    6.5616    0.0000 H   0  0  0  0  0  0  0  0  0  0  0  0
    6.2682    6.4304    0.0000 H   0  0  0  0  0  0  0  0  0  0  0  0
    2.7394    6.1659    0.0000 H   0  0  0  0  0  0  0  0  0  0  0  0
    3.8001    7.0779    0.0000 H   0  0  0  0  0  0  0  0  0  0  0  0
    3.0711    6.7526    0.0000 H   0  0  0  0  0  0  0  0  0  0  0  0
    2.0595    6.3144    0.0000 H   0  0  0  0  0  0  0  0  0  0  0  0
    1.3829    5.7567    0.0000 H   0  0  0  0  0  0  0  0  0  0  0  0
    1.9405    5.0801    0.0000 H   0  0  0  0  0  0  0  0  0  0  0  0
    5.8565   -3.0520    0.0000 H   0  0  0  0  0  0  0  0  0  0  0  0
    5.8565   -5.2920    0.0000 H   0  0  0  0  0  0  0  0  0  0  0  0
    4.4535   -5.4820    0.0000 H   0  0  0  0  0  0  0  0  0  0  0  0
    4.1245   -3.0520    0.0000 H   0  0  0  0  0  0  0  0  0  0  0  0
    4.1245   -5.2920    0.0000 H   0  0  0  0  0  0  0  0  0  0  0  0
    6.7225   -5.7920    0.0000 H   0  0  0  0  0  0  0  0  0  0  0  0
    2.6478   -3.0643    0.0000 H   0  0  0  0  0  0  0  0  0  0  0  0
    3.0464   -3.7546    0.0000 H   0  0  0  0  0  0  0  0  0  0  0  0
    4.4535   -6.4820    0.0000 H   0  0  0  0  0  0  0  0  0  0  0  0
    2.7215   -4.8620    0.0000 H   0  0  0  0  0  0  0  0  0  0  0  0
    3.8784   -2.1720    0.0000 H   0  0  0  0  0  0  0  0  0  0  0  0
    3.2584   -1.5520    0.0000 H   0  0  0  0  0  0  0  0  0  0  0  0
    2.6384   -2.1720    0.0000 H   0  0  0  0  0  0  0  0  0  0  0  0
  1 24  2  0  0  0  0
 28  2  1  6  0  0  0
 35  2  1  1  0  0  0
  3 35  1  0  0  0  0
  3 38  1  0  0  0  0
 36  4  1  6  0  0  0
  4 89  1  0  0  0  0
 37  5  1  1  0  0  0
  5 92  1  0  0  0  0
 39  6  1  6  0  0  0
  6 93  1  0  0  0  0
  7 21  1  0  0  0  0
  7 23  1  0  0  0  0
  7 30  1  0  0  0  0
  8 10  1  0  0  0  0
  8 12  1  0  0  0  0
  8 14  1  0  0  0  0
  8 42  1  6  0  0  0
  9 11  1  0  0  0  0
  9 13  1  0  0  0  0
  9 14  1  0  0  0  0
  9 43  1  6  0  0  0
 10 11  1  0  0  0  0
 10 16  1  0  0  0  0
 10 44  1  6  0  0  0
 11 19  1  0  0  0  0
 11 45  1  1  0  0  0
 12 15  1  0  0  0  0
 12 21  1  0  0  0  0
 12 46  1  1  0  0  0
 13 17  1  0  0  0  0
 13 22  1  0  0  0  0
 13 26  1  1  0  0  0
 14 47  1  0  0  0  0
 14 48  1  0  0  0  0
 15 18  1  0  0  0  0
 15 20  1  0  0  0  0
 15 49  1  1  0  0  0
 16 18  1  0  0  0  0
 16 50  1  0  0  0  0
 16 51  1  0  0  0  0
 17 24  1  0  0  0  0
 17 25  1  0  0  0  0
 17 52  1  6  0  0  0
 18 53  1  0  0  0  0
 18 54  1  0  0  0  0
 19 24  1  0  0  0  0
 19 55  1  0  0  0  0
 19 56  1  0  0  0  0
 20 23  1  0  0  0  0
 20 31  1  1  0  0  0
 20 57  1  0  0  0  0
 21 58  1  0  0  0  0
 21 59  1  0  0  0  0
 22 27  1  0  0  0  0
 22 60  1  0  0  0  0
 22 61  1  0  0  0  0
 23 29  1  0  0  0  0
 23 62  1  6  0  0  0
 25 28  1  0  0  0  0
 25 63  1  0  0  0  0
 25 64  1  0  0  0  0
 26 65  1  0  0  0  0
 26 66  1  0  0  0  0
 26 67  1  0  0  0  0
 27 28  1  0  0  0  0
 27 68  1  0  0  0  0
 27 69  1  0  0  0  0
 28 70  1  0  0  0  0
 29 33  1  0  0  0  0
 29 71  1  0  0  0  0
 29 72  1  0  0  0  0
 30 32  1  0  0  0  0
 30 73  1  0  0  0  0
 30 74  1  0  0  0  0
 31 75  1  0  0  0  0
 31 76  1  0  0  0  0
 31 77  1  0  0  0  0
 32 33  1  0  0  0  0
 32 34  1  1  0  0  0
 32 78  1  0  0  0  0
 33 79  1  0  0  0  0
 33 80  1  0  0  0  0
 34 81  1  0  0  0  0
 34 82  1  0  0  0  0
 34 83  1  0  0  0  0
 35 36  1  0  0  0  0
 35 84  1  0  0  0  0
 36 37  1  0  0  0  0
 36 85  1  0  0  0  0
 37 39  1  0  0  0  0
 37 86  1  0  0  0  0
 38 39  1  0  0  0  0
 38 40  1  1  0  0  0
 38 87  1  0  0  0  0
 39 88  1  0  0  0  0
 40 41  1  0  0  0  0
 40 90  1  0  0  0  0
 40 91  1  0  0  0  0
 41 94  1  0  0  0  0
 41 95  1  0  0  0  0
 41 96  1  0  0  0  0
M  END
> <PUBCHEM_COMPOUND_CID>
146673054

> <PUBCHEM_COMPOUND_CANONICALIZED>
1

> <PUBCHEM_CACTVS_COMPLEXITY>
992

> <PUBCHEM_CACTVS_HBOND_ACCEPTOR>
7

> <PUBCHEM_CACTVS_HBOND_DONOR>
3

> <PUBCHEM_CACTVS_ROTATABLE_BOND>
3

> <PUBCHEM_CACTVS_SUBSKEYS>
AAADcfB+OAAAAAAAAAAAAAAAAAAAAYAAAAA8eNECAAAAAGDwAAAAHgAACAAADzzxgAcCCAMABgAIAIAQAAAAAAAAAAAAAAEIAAAREBIAgAAmQAAFAACHAAHa6PyPgAAAAAAAAADAAAYAACAAAQAACAAAAA==

> <PUBCHEM_IUPAC_OPENEYE_NAME>
(1R,2S,6S,9S,10S,11R,14S,15S,18S,20R,23R,24S)-20-[(2R,3R,4S,5S,6R)-6-ethyl-3,4,5-trihydroxy-tetrahydropyran-2-yl]oxy-6,10,23-trimethyl-4-azahexacyclo[12.11.0.02,11.04,9.015,24.018,23]pentacosan-17-one

> <PUBCHEM_IUPAC_CAS_NAME>
(1R,2S,6S,9S,10S,11R,14S,15S,18S,20R,23R,24S)-20-[[(2R,3R,4S,5S,6R)-6-ethyl-3,4,5-trihydroxy-2-oxanyl]oxy]-6,10,23-trimethyl-4-azahexacyclo[12.11.0.02,11.04,9.015,24.018,23]pentacosan-17-one

> <PUBCHEM_IUPAC_NAME_MARKUP>
(1<I>R</I>,2<I>S</I>,6<I>S</I>,9<I>S</I>,10<I>S</I>,11<I>R</I>,14<I>S</I>,15<I>S</I>,18<I>S</I>,20<I>R</I>,23<I>R</I>,24<I>S</I>)-20-[(2<I>R</I>,3<I>R</I>,4<I>S</I>,5<I>S</I>,6<I>R</I>)-6-ethyl-3,4,5-trihydroxyoxan-2-yl]oxy-6,10,23-trimethyl-4-azahexacyclo[12.11.0.0<SUP>2,11</SUP>.0<SUP>4,9</SUP>.0<SUP>15,24</SUP>.0<SUP>18,23</SUP>]pentacosan-17-one

> <PUBCHEM_IUPAC_NAME>
(1R,2S,6S,9S,10S,11R,14S,15S,18S,20R,23R,24S)-20-[(2R,3R,4S,5S,6R)-6-ethyl-3,4,5-trihydroxyoxan-2-yl]oxy-6,10,23-trimethyl-4-azahexacyclo[12.11.0.02,11.04,9.015,24.018,23]pentacosan-17-one

> <PUBCHEM_IUPAC_SYSTEMATIC_NAME>
(1R,2S,6S,9S,10S,11R,14S,15S,18S,20R,23R,24S)-20-[(2R,3R,4S,5S,6R)-6-ethyl-3,4,5-tris(oxidanyl)oxan-2-yl]oxy-6,10,23-trimethyl-4-azahexacyclo[12.11.0.02,11.04,9.015,24.018,23]pentacosan-17-one

> <PUBCHEM_IUPAC_TRADITIONAL_NAME>
(1R,2S,6S,9S,10S,11R,14S,15S,18S,20R,23R,24S)-20-[(2R,3R,4S,5S,6R)-6-ethyl-3,4,5-trihydroxy-tetrahydropyran-2-yl]oxy-6,10,23-trimethyl-4-azahexacyclo[12.11.0.02,11.04,9.015,24.018,23]pentacosan-17-one

> <PUBCHEM_IUPAC_INCHI>
InChI=1S/C34H55NO6/c1-5-29-30(37)31(38)32(39)33(41-29)40-19-10-11-34(4)25-13-22-21(23(25)14-28(36)26(34)12-19)8-7-20-18(3)27-9-6-17(2)15-35(27)16-24(20)22/h17-27,29-33,37-39H,5-16H2,1-4H3/t17-,18-,19+,20-,21+,22+,23-,24+,25-,26+,27-,29+,30+,31-,32+,33+,34+/m0/s1

> <PUBCHEM_IUPAC_INCHIKEY>
RFIFCXHTDDIEBQ-WMDBIHPHSA-N

> <PUBCHEM_XLOGP3_AA>
4.7

> <PUBCHEM_EXACT_MASS>
573.402939

> <PUBCHEM_MOLECULAR_FORMULA>
C34H55NO6

> <PUBCHEM_MOLECULAR_WEIGHT>
573.8

> <PUBCHEM_OPENEYE_CAN_SMILES>
CCC1C(C(C(C(O1)OC2CCC3(C4CC5C(C4CC(=O)C3C2)CCC6C5CN7CC(CCC7C6C)C)C)O)O)O

> <PUBCHEM_OPENEYE_ISO_SMILES>
CC[C@@H]1[C@H]([C@@H]([C@H]([C@@H](O1)O[C@@H]2CC[C@@]3([C@H]4C[C@@H]5[C@H]([C@@H]4CC(=O)[C@H]3C2)CC[C@@H]6[C@H]5CN7C[C@H](CC[C@H]7[C@H]6C)C)C)O)O)O

> <PUBCHEM_CACTVS_TPSA>
99.5

> <PUBCHEM_MONOISOTOPIC_WEIGHT>
573.402939

> <PUBCHEM_TOTAL_CHARGE>
0

> <PUBCHEM_HEAVY_ATOM_COUNT>
41

> <PUBCHEM_ATOM_DEF_STEREO_COUNT>
17

> <PUBCHEM_ATOM_UDEF_STEREO_COUNT>
0

> <PUBCHEM_BOND_DEF_STEREO_COUNT>
0

> <PUBCHEM_BOND_UDEF_STEREO_COUNT>
0

> <PUBCHEM_ISOTOPIC_ATOM_COUNT>
0

> <PUBCHEM_COMPONENT_COUNT>
1

> <PUBCHEM_CACTVS_TAUTO_COUNT>
-1

> <PUBCHEM_COORDINATE_TYPE>
1
5
255

> <PUBCHEM_BONDANNOTATIONS>
10  44  6
11  45  5
12  46  5
13  26  5
15  49  5
17  52  6
28  2  6
35  2  5
20  31  5
23  62  6
32  34  5
38  40  5
36  4  6
37  5  5
39  6  6
8  42  6
9  43  6

$$$$
