101887656
  -OEChem-08282010032D

144149  0     1  0  0  0  0  0999 V2000
    3.7532   -1.2885    0.0000 O   0  0  0  0  0  0  0  0  0  0  0  0
    6.9337   -2.1145    0.0000 O   0  0  0  0  0  0  0  0  0  0  0  0
    4.3958    2.4777    0.0000 O   0  0  0  0  0  0  0  0  0  0  0  0
    5.1686   -4.3416    0.0000 O   0  0  0  0  0  0  0  0  0  0  0  0
    7.9025   -0.5450    0.0000 O   0  0  0  0  0  0  0  0  0  0  0  0
    8.5024    0.0799    0.0000 O   0  0  0  0  0  0  0  0  0  0  0  0
    3.5013   -2.0804    0.0000 O   0  0  0  0  0  0  0  0  0  0  0  0
   11.7426   -1.4745    0.0000 O   0  0  0  0  0  0  0  0  0  0  0  0
    5.2619    2.9777    0.0000 O   0  0  0  0  0  0  0  0  0  0  0  0
   11.8129    1.3401    0.0000 O   0  0  0  0  0  0  0  0  0  0  0  0
    8.5523    3.9625    0.0000 O   0  0  0  0  0  0  0  0  0  0  0  0
    6.8121   -3.4017    0.0000 O   0  0  0  0  0  0  0  0  0  0  0  0
    6.9530    2.2882    0.0000 O   0  0  0  0  0  0  0  0  0  0  0  0
    3.5298   -0.0223    0.0000 N   0  0  0  0  0  0  0  0  0  0  0  0
    6.1279   -0.5223    0.0000 N   0  0  0  0  0  0  0  0  0  0  0  0
    8.8685   -1.2861    0.0000 N   0  0  0  0  0  0  0  0  0  0  0  0
    5.2619    0.9777    0.0000 N   0  0  0  0  0  0  0  0  0  0  0  0
    4.7563   -2.9592    0.0000 N   0  0  0  0  0  0  0  0  0  0  0  0
    6.1705   -1.5450    0.0000 N   0  0  0  0  0  0  0  0  0  0  0  0
   11.0756    0.2870    0.0000 N   0  0  0  0  0  0  0  0  0  0  0  0
    6.9939    2.9777    0.0000 N   0  0  0  0  0  0  0  0  0  0  0  0
    9.5920    2.4777    0.0000 N   0  0  0  0  0  0  0  0  0  0  0  0
    7.8318    3.0256    0.0000 N   0  0  0  0  0  0  0  0  0  0  0  0
    5.2619   -0.0223    0.0000 C   0  0  1  0  0  0  0  0  0  0  0  0
    3.5298    0.9777    0.0000 C   0  0  1  0  0  0  0  0  0  0  0  0
    5.3547    1.4726    0.0000 C   0  0  0  0  0  0  0  0  0  0  0  0
    6.8348    1.7021    0.0000 C   0  0  0  0  0  0  0  0  0  0  0  0
    2.5836    1.2824    0.0000 C   0  0  0  0  0  0  0  0  0  0  0  0
    2.5836   -0.3271    0.0000 C   0  0  0  0  0  0  0  0  0  0  0  0
    7.3761    0.3055    0.0000 C   0  0  0  0  0  0  0  0  0  0  0  0
    4.3958   -0.5223    0.0000 C   0  0  0  0  0  0  0  0  0  0  0  0
    2.0000    0.4777    0.0000 C   0  0  0  0  0  0  0  0  0  0  0  0
    6.1279   -1.5223    0.0000 C   0  0  0  0  0  0  0  0  0  0  0  0
    4.3958    1.4777    0.0000 C   0  0  0  0  0  0  0  0  0  0  0  0
    7.9025   -1.5450    0.0000 C   0  0  1  0  0  0  0  0  0  0  0  0
    5.7222   -2.7004    0.0000 C   0  0  2  0  0  0  0  0  0  0  0  0
    7.8531   -2.5378    0.0000 C   0  0  0  0  0  0  0  0  0  0  0  0
    8.7814   -2.8932    0.0000 C   0  0  0  0  0  0  0  0  0  0  0  0
    9.4077   -2.1212    0.0000 C   0  0  0  0  0  0  0  0  0  0  0  0
    5.2046   -1.2861    0.0000 C   0  0  1  0  0  0  0  0  0  0  0  0
    7.0365   -1.0450    0.0000 C   0  0  0  0  0  0  0  0  0  0  0  0
    4.9457   -0.3202    0.0000 C   0  0  2  0  0  0  0  0  0  0  0  0
    5.9192   -3.6808    0.0000 C   0  0  0  0  0  0  0  0  0  0  0  0
    9.3685   -0.4201    0.0000 C   0  0  0  0  0  0  0  0  0  0  0  0
    6.1279    1.4777    0.0000 C   0  0  1  0  0  0  0  0  0  0  0  0
    4.4974   -1.9932    0.0000 C   0  0  0  0  0  0  0  0  0  0  0  0
   10.3685   -0.4201    0.0000 C   0  0  2  0  0  0  0  0  0  0  0  0
    3.9798   -0.0614    0.0000 C   0  0  0  0  0  0  0  0  0  0  0  0
    6.4699    0.5380    0.0000 C   0  0  0  0  0  0  0  0  0  0  0  0
   10.7511   -1.3440    0.0000 C   0  0  1  0  0  0  0  0  0  0  0  0
    5.7649    0.2534    0.0000 C   0  0  0  0  0  0  0  0  0  0  0  0
    6.1279    2.4777    0.0000 C   0  0  0  0  0  0  0  0  0  0  0  0
    3.2727   -0.7685    0.0000 C   0  0  0  0  0  0  0  0  0  0  0  0
    6.4699   -0.4620    0.0000 C   0  0  0  0  0  0  0  0  0  0  0  0
    9.8508    1.5117    0.0000 C   0  0  2  0  0  0  0  0  0  0  0  0
   10.1424   -2.1374    0.0000 C   0  0  0  0  0  0  0  0  0  0  0  0
   10.8168    1.2529    0.0000 C   0  0  0  0  0  0  0  0  0  0  0  0
    7.8600    2.4777    0.0000 C   0  0  2  0  0  0  0  0  0  0  0  0
    9.1437    0.8046    0.0000 C   0  0  0  0  0  0  0  0  0  0  0  0
    8.7260    2.9777    0.0000 C   0  0  0  0  0  0  0  0  0  0  0  0
    8.8600    2.4778    0.0000 C   0  0  0  0  0  0  0  0  0  0  0  0
    7.3360   -0.9620    0.0000 C   0  0  0  0  0  0  0  0  0  0  0  0
    5.6040   -0.9620    0.0000 C   0  0  0  0  0  0  0  0  0  0  0  0
    8.1778    1.0634    0.0000 C   0  0  0  0  0  0  0  0  0  0  0  0
    9.5027    3.2437    0.0000 C   0  0  0  0  0  0  0  0  0  0  0  0
    7.3360   -1.9620    0.0000 C   0  0  0  0  0  0  0  0  0  0  0  0
    5.6040   -1.9620    0.0000 C   0  0  0  0  0  0  0  0  0  0  0  0
    6.4700   -2.4620    0.0000 C   0  0  0  0  0  0  0  0  0  0  0  0
    7.9190    2.0294    0.0000 C   0  0  0  0  0  0  0  0  0  0  0  0
    9.1608    4.1834    0.0000 C   0  0  0  0  0  0  0  0  0  0  0  0
   10.4875    3.0700    0.0000 C   0  0  0  0  0  0  0  0  0  0  0  0
    9.8037    4.9494    0.0000 C   0  0  0  0  0  0  0  0  0  0  0  0
   11.1304    3.8359    0.0000 C   0  0  0  0  0  0  0  0  0  0  0  0
   10.7885    4.7757    0.0000 C   0  0  0  0  0  0  0  0  0  0  0  0
    4.5393    0.4253    0.0000 H   0  0  0  0  0  0  0  0  0  0  0  0
    3.4399    1.8229    0.0000 H   0  0  0  0  0  0  0  0  0  0  0  0
    5.3040    2.0905    0.0000 H   0  0  0  0  0  0  0  0  0  0  0  0
    4.7348    1.4664    0.0000 H   0  0  0  0  0  0  0  0  0  0  0  0
    7.4276    1.8840    0.0000 H   0  0  0  0  0  0  0  0  0  0  0  0
    6.6960    2.3064    0.0000 H   0  0  0  0  0  0  0  0  0  0  0  0
    2.8346    1.8493    0.0000 H   0  0  0  0  0  0  0  0  0  0  0  0
    2.0462    1.5916    0.0000 H   0  0  0  0  0  0  0  0  0  0  0  0
    2.0462   -0.6363    0.0000 H   0  0  0  0  0  0  0  0  0  0  0  0
    2.8346   -0.8940    0.0000 H   0  0  0  0  0  0  0  0  0  0  0  0
    7.6808   -0.2345    0.0000 H   0  0  0  0  0  0  0  0  0  0  0  0
    7.9366    0.5706    0.0000 H   0  0  0  0  0  0  0  0  0  0  0  0
    1.5391    0.8924    0.0000 H   0  0  0  0  0  0  0  0  0  0  0  0
    1.5391    0.0629    0.0000 H   0  0  0  0  0  0  0  0  0  0  0  0
    7.1561   -1.9515    0.0000 H   0  0  0  0  0  0  0  0  0  0  0  0
    5.3953   -3.2272    0.0000 H   0  0  0  0  0  0  0  0  0  0  0  0
    7.2405   -2.4421    0.0000 H   0  0  0  0  0  0  0  0  0  0  0  0
    7.6935   -3.1369    0.0000 H   0  0  0  0  0  0  0  0  0  0  0  0
    8.5001   -3.4458    0.0000 H   0  0  0  0  0  0  0  0  0  0  0  0
    9.3013   -3.2311    0.0000 H   0  0  0  0  0  0  0  0  0  0  0  0
    9.8455   -2.5603    0.0000 H   0  0  0  0  0  0  0  0  0  0  0  0
    9.8903   -1.7320    0.0000 H   0  0  0  0  0  0  0  0  0  0  0  0
    5.8056   -0.6851    0.0000 H   0  0  0  0  0  0  0  0  0  0  0  0
    4.7250    0.6675    0.0000 H   0  0  0  0  0  0  0  0  0  0  0  0
    4.8381    0.2904    0.0000 H   0  0  0  0  0  0  0  0  0  0  0  0
    4.4463   -3.4961    0.0000 H   0  0  0  0  0  0  0  0  0  0  0  0
    6.2418   -4.2102    0.0000 H   0  0  0  0  0  0  0  0  0  0  0  0
    6.4966   -3.4549    0.0000 H   0  0  0  0  0  0  0  0  0  0  0  0
    6.0363   -2.1503    0.0000 H   0  0  0  0  0  0  0  0  0  0  0  0
    5.9158    0.8951    0.0000 H   0  0  0  0  0  0  0  0  0  0  0  0
   11.2021   -0.5859    0.0000 H   0  0  0  0  0  0  0  0  0  0  0  0
    4.2418    0.5005    0.0000 H   0  0  0  0  0  0  0  0  0  0  0  0
    3.4719    0.2942    0.0000 H   0  0  0  0  0  0  0  0  0  0  0  0
    7.0392    0.2924    0.0000 H   0  0  0  0  0  0  0  0  0  0  0  0
    5.8594    0.4303    0.0000 H   0  0  0  0  0  0  0  0  0  0  0  0
   11.1286   -0.8521    0.0000 H   0  0  0  0  0  0  0  0  0  0  0  0
    6.1205   -0.2545    0.0000 H   0  0  0  0  0  0  0  0  0  0  0  0
    6.2728    0.6090    0.0000 H   0  0  0  0  0  0  0  0  0  0  0  0
    5.4093    0.7612    0.0000 H   0  0  0  0  0  0  0  0  0  0  0  0
   11.6744    0.1265    0.0000 H   0  0  0  0  0  0  0  0  0  0  0  0
    2.8343   -0.3301    0.0000 H   0  0  0  0  0  0  0  0  0  0  0  0
    2.8343   -1.2069    0.0000 H   0  0  0  0  0  0  0  0  0  0  0  0
    3.7111   -1.2069    0.0000 H   0  0  0  0  0  0  0  0  0  0  0  0
    5.2908   -4.9494    0.0000 H   0  0  0  0  0  0  0  0  0  0  0  0
    6.7819    3.5603    0.0000 H   0  0  0  0  0  0  0  0  0  0  0  0
    9.2520    1.6722    0.0000 H   0  0  0  0  0  0  0  0  0  0  0  0
    9.6505   -1.7599    0.0000 H   0  0  0  0  0  0  0  0  0  0  0  0
    9.7650   -2.6292    0.0000 H   0  0  0  0  0  0  0  0  0  0  0  0
   10.6343   -2.5148    0.0000 H   0  0  0  0  0  0  0  0  0  0  0  0
    7.6995    1.8788    0.0000 H   0  0  0  0  0  0  0  0  0  0  0  0
    8.8817    0.2427    0.0000 H   0  0  0  0  0  0  0  0  0  0  0  0
    9.6516    0.4490    0.0000 H   0  0  0  0  0  0  0  0  0  0  0  0
   10.1973    2.3435    0.0000 H   0  0  0  0  0  0  0  0  0  0  0  0
   11.9799   -2.0473    0.0000 H   0  0  0  0  0  0  0  0  0  0  0  0
    8.7170    1.8745    0.0000 H   0  0  0  0  0  0  0  0  0  0  0  0
    9.4140    2.1995    0.0000 H   0  0  0  0  0  0  0  0  0  0  0  0
    7.8730   -0.6520    0.0000 H   0  0  0  0  0  0  0  0  0  0  0  0
    5.0670   -0.6520    0.0000 H   0  0  0  0  0  0  0  0  0  0  0  0
    7.5602    1.0094    0.0000 H   0  0  0  0  0  0  0  0  0  0  0  0
    8.1238    0.4458    0.0000 H   0  0  0  0  0  0  0  0  0  0  0  0
    7.8730   -2.2720    0.0000 H   0  0  0  0  0  0  0  0  0  0  0  0
    5.0671   -2.2720    0.0000 H   0  0  0  0  0  0  0  0  0  0  0  0
    8.5502    4.2912    0.0000 H   0  0  0  0  0  0  0  0  0  0  0  0
   10.6995    2.4873    0.0000 H   0  0  0  0  0  0  0  0  0  0  0  0
    9.5917    5.5320    0.0000 H   0  0  0  0  0  0  0  0  0  0  0  0
   11.7410    3.7282    0.0000 H   0  0  0  0  0  0  0  0  0  0  0  0
    7.4226   -3.5094    0.0000 H   0  0  0  0  0  0  0  0  0  0  0  0
    8.1874    3.5334    0.0000 H   0  0  0  0  0  0  0  0  0  0  0  0
    7.5698    3.5875    0.0000 H   0  0  0  0  0  0  0  0  0  0  0  0
   11.1870    5.2506    0.0000 H   0  0  0  0  0  0  0  0  0  0  0  0
  1 31  2  0  0  0  0
  2 33  2  0  0  0  0
  3 34  2  0  0  0  0
  4 43  1  0  0  0  0
  4118  1  0  0  0  0
  5 41  2  0  0  0  0
  6 44  2  0  0  0  0
  7 46  2  0  0  0  0
 50  8  1  6  0  0  0
  8128  1  0  0  0  0
  9 52  2  0  0  0  0
 10 57  2  0  0  0  0
 11 60  2  0  0  0  0
 12 68  1  0  0  0  0
 12141  1  0  0  0  0
 13 69  2  0  0  0  0
 14 25  1  0  0  0  0
 14 29  1  0  0  0  0
 14 31  1  0  0  0  0
 15 24  1  0  0  0  0
 15 30  1  0  0  0  0
 15 33  1  0  0  0  0
 16 35  1  0  0  0  0
 16 39  1  0  0  0  0
 16 44  1  0  0  0  0
 17 34  1  0  0  0  0
 17 45  1  0  0  0  0
 17 98  1  0  0  0  0
 18 36  1  0  0  0  0
 18 46  1  0  0  0  0
 18100  1  0  0  0  0
 19 40  1  0  0  0  0
 19 41  1  0  0  0  0
 19103  1  0  0  0  0
 20 47  1  0  0  0  0
 20 57  1  0  0  0  0
 20114  1  0  0  0  0
 21 52  1  0  0  0  0
 21 58  1  0  0  0  0
 21119  1  0  0  0  0
 22 55  1  0  0  0  0
 22 60  1  0  0  0  0
 22127  1  0  0  0  0
 23 69  1  0  0  0  0
 23142  1  0  0  0  0
 23143  1  0  0  0  0
 24 26  1  0  0  0  0
 24 31  1  0  0  0  0
 24 75  1  1  0  0  0
 25 28  1  0  0  0  0
 25 34  1  0  0  0  0
 25 76  1  6  0  0  0
 26 27  1  0  0  0  0
 26 77  1  0  0  0  0
 26 78  1  0  0  0  0
 27 30  1  0  0  0  0
 27 79  1  0  0  0  0
 27 80  1  0  0  0  0
 28 32  1  0  0  0  0
 28 81  1  0  0  0  0
 28 82  1  0  0  0  0
 29 32  1  0  0  0  0
 29 83  1  0  0  0  0
 29 84  1  0  0  0  0
 30 85  1  0  0  0  0
 30 86  1  0  0  0  0
 32 87  1  0  0  0  0
 32 88  1  0  0  0  0
 33 36  1  0  0  0  0
 35 37  1  0  0  0  0
 35 41  1  0  0  0  0
 35 89  1  6  0  0  0
 36 43  1  6  0  0  0
 36 90  1  0  0  0  0
 37 38  1  0  0  0  0
 37 91  1  0  0  0  0
 37 92  1  0  0  0  0
 38 39  1  0  0  0  0
 38 93  1  0  0  0  0
 38 94  1  0  0  0  0
 39 95  1  0  0  0  0
 39 96  1  0  0  0  0
 40 42  1  0  0  0  0
 40 46  1  0  0  0  0
 40 97  1  1  0  0  0
 42 48  1  0  0  0  0
 42 51  1  6  0  0  0
 42 99  1  0  0  0  0
 43101  1  0  0  0  0
 43102  1  0  0  0  0
 44 47  1  0  0  0  0
 45 49  1  6  0  0  0
 45 52  1  0  0  0  0
 45104  1  0  0  0  0
 47 50  1  0  0  0  0
 47105  1  6  0  0  0
 48 53  1  0  0  0  0
 48106  1  0  0  0  0
 48107  1  0  0  0  0
 49 54  1  0  0  0  0
 49108  1  0  0  0  0
 49109  1  0  0  0  0
 50 56  1  0  0  0  0
 50110  1  0  0  0  0
 51111  1  0  0  0  0
 51112  1  0  0  0  0
 51113  1  0  0  0  0
 53115  1  0  0  0  0
 53116  1  0  0  0  0
 53117  1  0  0  0  0
 54 62  2  0  0  0  0
 54 63  1  0  0  0  0
 55 57  1  0  0  0  0
 55 59  1  6  0  0  0
 55120  1  0  0  0  0
 56121  1  0  0  0  0
 56122  1  0  0  0  0
 56123  1  0  0  0  0
 58 60  1  0  0  0  0
 58 61  1  6  0  0  0
 58124  1  0  0  0  0
 59 64  1  0  0  0  0
 59125  1  0  0  0  0
 59126  1  0  0  0  0
 61 65  1  0  0  0  0
 61129  1  0  0  0  0
 61130  1  0  0  0  0
 62 66  1  0  0  0  0
 62131  1  0  0  0  0
 63 67  2  0  0  0  0
 63132  1  0  0  0  0
 64 69  1  0  0  0  0
 64133  1  0  0  0  0
 64134  1  0  0  0  0
 65 70  2  0  0  0  0
 65 71  1  0  0  0  0
 66 68  2  0  0  0  0
 66135  1  0  0  0  0
 67 68  1  0  0  0  0
 67136  1  0  0  0  0
 70 72  1  0  0  0  0
 70137  1  0  0  0  0
 71 73  2  0  0  0  0
 71138  1  0  0  0  0
 72 74  2  0  0  0  0
 72139  1  0  0  0  0
 73 74  1  0  0  0  0
 73140  1  0  0  0  0
 74144  1  0  0  0  0
M  END
> <PUBCHEM_COMPOUND_CID>
101887656

> <PUBCHEM_COMPOUND_CANONICALIZED>
1

> <PUBCHEM_CACTVS_COMPLEXITY>
2050

> <PUBCHEM_CACTVS_HBOND_ACCEPTOR>
13

> <PUBCHEM_CACTVS_HBOND_DONOR>
10

> <PUBCHEM_CACTVS_ROTATABLE_BOND>
11

> <PUBCHEM_CACTVS_SUBSKEYS>
AAADcfB//AAAAAAAAAAAAAAAAAAAAWLFgAAwYAAAAAAAAAABQAAAHgAQCAAADTzhmAYyBoPAAgCIAiFSEAACAAAgIAAIiIGOCIgKdjaCkTOUcAAm9hGYmAecy6COIAAAAAAAAABAAAAAAAAAAAAAAAAAAA==

> <PUBCHEM_IUPAC_OPENEYE_NAME>
3-[(3S,9S,12S,15S,21S,24S,27S,30S,33S)-27-benzyl-21-[(1R)-1-hydroxyethyl]-9-(hydroxymethyl)-30-[(4-hydroxyphenyl)methyl]-12-[(1S)-1-methylpropyl]-2,8,11,14,20,23,26,29,32-nonaoxo-1,7,10,13,19,22,25,28,31-nonazatetracyclo[31.3.0.03,7.015,19]hexatriacontan-24-yl]propanamide

> <PUBCHEM_IUPAC_CAS_NAME>
3-[(3S,9S,12S,15S,21S,24S,27S,30S,33S)-12-[(2S)-butan-2-yl]-21-[(1R)-1-hydroxyethyl]-9-(hydroxymethyl)-30-[(4-hydroxyphenyl)methyl]-2,8,11,14,20,23,26,29,32-nonaoxo-27-(phenylmethyl)-1,7,10,13,19,22,25,28,31-nonazatetracyclo[31.3.0.03,7.015,19]hexatriacontan-24-yl]propanamide

> <PUBCHEM_IUPAC_NAME_MARKUP>
3-[(3<I>S</I>,9<I>S</I>,12<I>S</I>,15<I>S</I>,21<I>S</I>,24<I>S</I>,27<I>S</I>,30<I>S</I>,33<I>S</I>)-27-benzyl-12-[(2<I>S</I>)-butan-2-yl]-21-[(1<I>R</I>)-1-hydroxyethyl]-9-(hydroxymethyl)-30-[(4-hydroxyphenyl)methyl]-2,8,11,14,20,23,26,29,32-nonaoxo-1,7,10,13,19,22,25,28,31-nonazatetracyclo[31.3.0.0<SUP>3,7</SUP>.0<SUP>15,19</SUP>]hexatriacontan-24-yl]propanamide

> <PUBCHEM_IUPAC_NAME>
3-[(3S,9S,12S,15S,21S,24S,27S,30S,33S)-27-benzyl-12-[(2S)-butan-2-yl]-21-[(1R)-1-hydroxyethyl]-9-(hydroxymethyl)-30-[(4-hydroxyphenyl)methyl]-2,8,11,14,20,23,26,29,32-nonaoxo-1,7,10,13,19,22,25,28,31-nonazatetracyclo[31.3.0.03,7.015,19]hexatriacontan-24-yl]propanamide

> <PUBCHEM_IUPAC_SYSTEMATIC_NAME>
3-[(3S,9S,12S,15S,21S,24S,27S,30S,33S)-12-[(2S)-butan-2-yl]-9-(hydroxymethyl)-30-[(4-hydroxyphenyl)methyl]-21-[(1R)-1-oxidanylethyl]-2,8,11,14,20,23,26,29,32-nonakis(oxidanylidene)-27-(phenylmethyl)-1,7,10,13,19,22,25,28,31-nonazatetracyclo[31.3.0.03,7.015,19]hexatriacontan-24-yl]propanamide

> <PUBCHEM_IUPAC_TRADITIONAL_NAME>
3-[(3S,9S,12S,15S,21S,24S,27S,30S,33S)-27-benzyl-30-(4-hydroxybenzyl)-21-[(1R)-1-hydroxyethyl]-2,8,11,14,20,23,26,29,32-nonaketo-9-methylol-12-[(1S)-1-methylpropyl]-1,7,10,13,19,22,25,28,31-nonazatetracyclo[31.3.0.03,7.015,19]hexatriacontan-24-yl]propionamide

> <PUBCHEM_IUPAC_INCHI>
InChI=1S/C51H70N10O13/c1-4-28(2)41-48(71)56-36(27-62)49(72)61-24-10-15-39(61)50(73)59-22-8-13-37(59)46(69)55-35(26-31-16-18-32(64)19-17-31)45(68)54-34(25-30-11-6-5-7-12-30)44(67)53-33(20-21-40(52)65)43(66)58-42(29(3)63)51(74)60-23-9-14-38(60)47(70)57-41/h5-7,11-12,16-19,28-29,33-39,41-42,62-64H,4,8-10,13-15,20-27H2,1-3H3,(H2,52,65)(H,53,67)(H,54,68)(H,55,69)(H,56,71)(H,57,70)(H,58,66)/t28-,29+,33-,34-,35-,36-,37-,38-,39-,41-,42-/m0/s1

> <PUBCHEM_IUPAC_INCHIKEY>
URNQVWLQLBLZSQ-SLLCCUTASA-N

> <PUBCHEM_XLOGP3_AA>
1

> <PUBCHEM_EXACT_MASS>
1030.512382

> <PUBCHEM_MOLECULAR_FORMULA>
C51H70N10O13

> <PUBCHEM_MOLECULAR_WEIGHT>
1031.2

> <PUBCHEM_OPENEYE_CAN_SMILES>
CCC(C)C1C(=O)NC(C(=O)N2CCCC2C(=O)N3CCCC3C(=O)NC(C(=O)NC(C(=O)NC(C(=O)NC(C(=O)N4CCCC4C(=O)N1)C(C)O)CCC(=O)N)CC5=CC=CC=C5)CC6=CC=C(C=C6)O)CO

> <PUBCHEM_OPENEYE_ISO_SMILES>
CC[C@H](C)[C@H]1C(=O)N[C@H](C(=O)N2CCC[C@H]2C(=O)N3CCC[C@H]3C(=O)N[C@H](C(=O)N[C@H](C(=O)N[C@H](C(=O)N[C@H](C(=O)N4CCC[C@H]4C(=O)N1)[C@@H](C)O)CCC(=O)N)CC5=CC=CC=C5)CC6=CC=C(C=C6)O)CO

> <PUBCHEM_CACTVS_TPSA>
339

> <PUBCHEM_MONOISOTOPIC_WEIGHT>
1030.512382

> <PUBCHEM_TOTAL_CHARGE>
0

> <PUBCHEM_HEAVY_ATOM_COUNT>
74

> <PUBCHEM_ATOM_DEF_STEREO_COUNT>
11

> <PUBCHEM_ATOM_UDEF_STEREO_COUNT>
0

> <PUBCHEM_BOND_DEF_STEREO_COUNT>
0

> <PUBCHEM_BOND_UDEF_STEREO_COUNT>
0

> <PUBCHEM_ISOTOPIC_ATOM_COUNT>
0

> <PUBCHEM_COMPONENT_COUNT>
1

> <PUBCHEM_CACTVS_TAUTO_COUNT>
-1

> <PUBCHEM_COORDINATE_TYPE>
1
5
255

> <PUBCHEM_BONDANNOTATIONS>
24  75  5
25  76  6
35  89  6
36  43  6
40  97  5
42  51  6
45  49  6
47  105  6
54  62  8
54  63  8
55  59  6
58  61  6
62  66  8
63  67  8
65  70  8
65  71  8
66  68  8
67  68  8
70  72  8
71  73  8
72  74  8
73  74  8
50  8  6

$$$$
