102062686
  -OEChem-08282009562D

135141  0     1  0  0  0  0  0999 V2000
    5.2557   -5.5188    0.0000 S   0  0  3  0  0  0  0  0  0  0  0  0
   10.6543    5.3866    0.0000 O   0  0  0  0  0  0  0  0  0  0  0  0
    7.0487    5.8080    0.0000 O   0  0  0  0  0  0  0  0  0  0  0  0
   11.1887   -3.7897    0.0000 O   0  0  0  0  0  0  0  0  0  0  0  0
   13.1454    2.7461    0.0000 O   0  0  0  0  0  0  0  0  0  0  0  0
   13.3565   -0.8779    0.0000 O   0  0  0  0  0  0  0  0  0  0  0  0
    4.0158    3.8132    0.0000 O   0  0  0  0  0  0  0  0  0  0  0  0
    7.6565   -4.6269    0.0000 O   0  0  0  0  0  0  0  0  0  0  0  0
    4.4125   -2.9977    0.0000 O   0  0  0  0  0  0  0  0  0  0  0  0
    2.9746    0.3356    0.0000 O   0  0  0  0  0  0  0  0  0  0  0  0
   15.7685    3.6775    0.0000 O   0  0  0  0  0  0  0  0  0  0  0  0
    4.2574   -5.4607    0.0000 O   0  0  0  0  0  0  0  0  0  0  0  0
    8.2726    4.9510    0.0000 N   0  0  0  0  0  0  0  0  0  0  0  0
   11.0410    3.9434    0.0000 N   0  0  0  0  0  0  0  0  0  0  0  0
   12.0024   -1.5093    0.0000 N   0  0  0  0  0  0  0  0  0  0  0  0
    5.5041    3.9434    0.0000 N   0  0  0  0  0  0  0  0  0  0  0  0
    9.7456   -3.4030    0.0000 N   0  0  0  0  0  0  0  0  0  0  0  0
   12.5140    1.3920    0.0000 N   0  0  0  0  0  0  0  0  0  0  0  0
    6.7995   -3.4030    0.0000 N   0  0  0  0  0  0  0  0  0  0  0  0
    4.0311    1.3920    0.0000 N   0  0  0  0  0  0  0  0  0  0  0  0
    4.5427   -1.5093    0.0000 N   0  0  0  0  0  0  0  0  0  0  0  0
    9.2658    4.8349    0.0000 C   0  0  1  0  0  0  0  0  0  0  0  0
    9.6783    5.7394    0.0000 C   0  0  0  0  0  0  0  0  0  0  0  0
   11.7272    3.2160    0.0000 C   0  0  1  0  0  0  0  0  0  0  0  0
    8.0797    5.9262    0.0000 C   0  0  0  0  0  0  0  0  0  0  0  0
    6.3396    4.4929    0.0000 C   0  0  2  0  0  0  0  0  0  0  0  0
    8.9468    6.4125    0.0000 C   0  0  0  0  0  0  0  0  0  0  0  0
   10.2055    4.4929    0.0000 C   0  0  0  0  0  0  0  0  0  0  0  0
   11.4053   -2.3114    0.0000 C   0  0  1  0  0  0  0  0  0  0  0  0
   12.6246    3.6437    0.0000 C   0  0  0  0  0  0  0  0  0  0  0  0
   11.5201    4.8144    0.0000 C   0  0  0  0  0  0  0  0  0  0  0  0
    7.2793    4.8349    0.0000 C   0  0  0  0  0  0  0  0  0  0  0  0
   12.4969    4.6296    0.0000 C   0  0  0  0  0  0  0  0  0  0  0  0
    6.0743    5.4509    0.0000 C   0  0  0  0  0  0  0  0  0  0  0  0
   11.9823   -3.1209    0.0000 C   0  0  0  0  0  0  0  0  0  0  0  0
    8.7726   -3.6336    0.0000 C   0  0  1  0  0  0  0  0  0  0  0  0
    5.0812    5.4963    0.0000 C   0  0  0  0  0  0  0  0  0  0  0  0
   12.9434   -1.8299    0.0000 C   0  0  0  0  0  0  0  0  0  0  0  0
   12.9310   -2.8239    0.0000 C   0  0  0  0  0  0  0  0  0  0  0  0
    4.7296    4.5665    0.0000 C   0  0  0  0  0  0  0  0  0  0  0  0
   10.6392   -2.9542    0.0000 C   0  0  0  0  0  0  0  0  0  0  0  0
    8.6942   -4.6246    0.0000 C   0  0  0  0  0  0  0  0  0  0  0  0
   10.2603   -4.2535    0.0000 C   0  0  0  0  0  0  0  0  0  0  0  0
    9.6119   -5.0069    0.0000 C   0  0  0  0  0  0  0  0  0  0  0  0
   12.2272    2.3500    0.0000 C   0  0  0  0  0  0  0  0  0  0  0  0
   12.5722    0.3937    0.0000 C   0  0  2  0  0  0  0  0  0  0  0  0
   12.3985   -0.5911    0.0000 C   0  0  0  0  0  0  0  0  0  0  0  0
    4.8179    3.2160    0.0000 C   0  0  0  0  0  0  0  0  0  0  0  0
    7.7726   -3.6336    0.0000 C   0  0  0  0  0  0  0  0  0  0  0  0
   13.5705    0.3356    0.0000 C   0  0  0  0  0  0  0  0  0  0  0  0
    4.3179    2.3500    0.0000 C   0  0  0  0  0  0  0  0  0  0  0  0
    5.9059   -2.9542    0.0000 C   0  0  1  0  0  0  0  0  0  0  0  0
   14.1200    1.1710    0.0000 C   0  0  0  0  0  0  0  0  0  0  0  0
    4.1466   -0.5911    0.0000 C   0  0  1  0  0  0  0  0  0  0  0  0
    5.3564   -3.7897    0.0000 C   0  0  0  0  0  0  0  0  0  0  0  0
    5.1398   -2.3114    0.0000 C   0  0  0  0  0  0  0  0  0  0  0  0
    3.1886   -0.8779    0.0000 C   0  0  2  0  0  0  0  0  0  0  0  0
    3.9730    0.3937    0.0000 C   0  0  0  0  0  0  0  0  0  0  0  0
   13.6712    2.0647    0.0000 C   0  0  0  0  0  0  0  0  0  0  0  0
   15.1183    1.1129    0.0000 C   0  0  0  0  0  0  0  0  0  0  0  0
    5.8052   -4.6834    0.0000 C   0  0  0  0  0  0  0  0  0  0  0  0
    2.9580   -1.8510    0.0000 C   0  0  0  0  0  0  0  0  0  0  0  0
    2.4612   -0.1917    0.0000 C   0  0  0  0  0  0  0  0  0  0  0  0
   14.2207    2.9002    0.0000 C   0  0  0  0  0  0  0  0  0  0  0  0
   15.6678    1.9484    0.0000 C   0  0  0  0  0  0  0  0  0  0  0  0
   15.2190    2.8420    0.0000 C   0  0  0  0  0  0  0  0  0  0  0  0
    2.0000   -2.1378    0.0000 C   0  0  0  0  0  0  0  0  0  0  0  0
    5.7045   -6.4125    0.0000 C   0  0  0  0  0  0  0  0  0  0  0  0
    9.0698    4.0078    0.0000 H   0  0  0  0  0  0  0  0  0  0  0  0
   10.2122    5.4242    0.0000 H   0  0  0  0  0  0  0  0  0  0  0  0
   10.0478    6.2372    0.0000 H   0  0  0  0  0  0  0  0  0  0  0  0
   11.0454    2.7084    0.0000 H   0  0  0  0  0  0  0  0  0  0  0  0
    7.8350    6.4959    0.0000 H   0  0  0  0  0  0  0  0  0  0  0  0
    7.4875    5.7427    0.0000 H   0  0  0  0  0  0  0  0  0  0  0  0
    6.7289    5.2485    0.0000 H   0  0  0  0  0  0  0  0  0  0  0  0
    9.4122    6.8221    0.0000 H   0  0  0  0  0  0  0  0  0  0  0  0
    8.5884    6.9184    0.0000 H   0  0  0  0  0  0  0  0  0  0  0  0
   10.7870   -1.7281    0.0000 H   0  0  0  0  0  0  0  0  0  0  0  0
   12.8310    3.0591    0.0000 H   0  0  0  0  0  0  0  0  0  0  0  0
   13.2277    3.7876    0.0000 H   0  0  0  0  0  0  0  0  0  0  0  0
   11.6988    5.4081    0.0000 H   0  0  0  0  0  0  0  0  0  0  0  0
   10.9485    5.0545    0.0000 H   0  0  0  0  0  0  0  0  0  0  0  0
   13.1167    4.6442    0.0000 H   0  0  0  0  0  0  0  0  0  0  0  0
   12.5475    5.2475    0.0000 H   0  0  0  0  0  0  0  0  0  0  0  0
    6.6859    5.5527    0.0000 H   0  0  0  0  0  0  0  0  0  0  0  0
    6.0373    6.0698    0.0000 H   0  0  0  0  0  0  0  0  0  0  0  0
   11.4424   -3.4257    0.0000 H   0  0  0  0  0  0  0  0  0  0  0  0
   12.2287   -3.6898    0.0000 H   0  0  0  0  0  0  0  0  0  0  0  0
    8.6739   -2.7894    0.0000 H   0  0  0  0  0  0  0  0  0  0  0  0
    5.1745    6.1093    0.0000 H   0  0  0  0  0  0  0  0  0  0  0  0
    4.4815    5.6535    0.0000 H   0  0  0  0  0  0  0  0  0  0  0  0
   13.5591   -1.9028    0.0000 H   0  0  0  0  0  0  0  0  0  0  0  0
   13.0806   -1.2253    0.0000 H   0  0  0  0  0  0  0  0  0  0  0  0
   13.0530   -3.4318    0.0000 H   0  0  0  0  0  0  0  0  0  0  0  0
   13.5483   -2.7665    0.0000 H   0  0  0  0  0  0  0  0  0  0  0  0
    4.1759    4.8456    0.0000 H   0  0  0  0  0  0  0  0  0  0  0  0
    4.3939    4.0452    0.0000 H   0  0  0  0  0  0  0  0  0  0  0  0
    8.0847   -4.5111    0.0000 H   0  0  0  0  0  0  0  0  0  0  0  0
    8.5173   -5.2188    0.0000 H   0  0  0  0  0  0  0  0  0  0  0  0
   10.6852   -4.7050    0.0000 H   0  0  0  0  0  0  0  0  0  0  0  0
   10.7541   -3.8785    0.0000 H   0  0  0  0  0  0  0  0  0  0  0  0
    9.3146   -5.5510    0.0000 H   0  0  0  0  0  0  0  0  0  0  0  0
   10.1217   -5.3597    0.0000 H   0  0  0  0  0  0  0  0  0  0  0  0
   13.0106    0.8321    0.0000 H   0  0  0  0  0  0  0  0  0  0  0  0
   13.1246    1.4997    0.0000 H   0  0  0  0  0  0  0  0  0  0  0  0
   13.4275   -0.2677    0.0000 H   0  0  0  0  0  0  0  0  0  0  0  0
   14.1398    0.0900    0.0000 H   0  0  0  0  0  0  0  0  0  0  0  0
    3.9672    2.8613    0.0000 H   0  0  0  0  0  0  0  0  0  0  0  0
    4.8872    2.1044    0.0000 H   0  0  0  0  0  0  0  0  0  0  0  0
    6.5875   -3.9856    0.0000 H   0  0  0  0  0  0  0  0  0  0  0  0
    6.0664   -3.5531    0.0000 H   0  0  0  0  0  0  0  0  0  0  0  0
    3.7874   -1.3615    0.0000 H   0  0  0  0  0  0  0  0  0  0  0  0
    3.4205    1.4997    0.0000 H   0  0  0  0  0  0  0  0  0  0  0  0
    4.9054   -3.3642    0.0000 H   0  0  0  0  0  0  0  0  0  0  0  0
    4.8590   -4.1600    0.0000 H   0  0  0  0  0  0  0  0  0  0  0  0
    2.5946   -1.0557    0.0000 H   0  0  0  0  0  0  0  0  0  0  0  0
    4.0057   -1.8193    0.0000 H   0  0  0  0  0  0  0  0  0  0  0  0
   13.0522    2.1007    0.0000 H   0  0  0  0  0  0  0  0  0  0  0  0
   15.3965    0.5589    0.0000 H   0  0  0  0  0  0  0  0  0  0  0  0
    6.2561   -5.1088    0.0000 H   0  0  0  0  0  0  0  0  0  0  0  0
    6.3025   -4.3131    0.0000 H   0  0  0  0  0  0  0  0  0  0  0  0
    3.0300   -2.4668    0.0000 H   0  0  0  0  0  0  0  0  0  0  0  0
    3.5769   -1.8870    0.0000 H   0  0  0  0  0  0  0  0  0  0  0  0
    2.8867    0.2593    0.0000 H   0  0  0  0  0  0  0  0  0  0  0  0
    2.0103    0.2338    0.0000 H   0  0  0  0  0  0  0  0  0  0  0  0
    2.0358   -0.6426    0.0000 H   0  0  0  0  0  0  0  0  0  0  0  0
   13.9424    3.4542    0.0000 H   0  0  0  0  0  0  0  0  0  0  0  0
   16.2867    1.9124    0.0000 H   0  0  0  0  0  0  0  0  0  0  0  0
    1.8222   -1.5438    0.0000 H   0  0  0  0  0  0  0  0  0  0  0  0
    1.4060   -2.3156    0.0000 H   0  0  0  0  0  0  0  0  0  0  0  0
    2.1778   -2.7317    0.0000 H   0  0  0  0  0  0  0  0  0  0  0  0
    5.1504   -6.6907    0.0000 H   0  0  0  0  0  0  0  0  0  0  0  0
    5.9827   -6.9665    0.0000 H   0  0  0  0  0  0  0  0  0  0  0  0
    6.2585   -6.1342    0.0000 H   0  0  0  0  0  0  0  0  0  0  0  0
   16.3875    3.6415    0.0000 H   0  0  0  0  0  0  0  0  0  0  0  0
  1 12  2  0  0  0  0
  1 61  1  0  0  0  0
  1 68  1  0  0  0  0
  2 28  2  0  0  0  0
  3 32  2  0  0  0  0
  4 41  2  0  0  0  0
  5 45  2  0  0  0  0
  6 47  2  0  0  0  0
  7 48  2  0  0  0  0
  8 49  2  0  0  0  0
  9 56  2  0  0  0  0
 10 58  2  0  0  0  0
 11 66  1  0  0  0  0
 11135  1  0  0  0  0
 13 22  1  0  0  0  0
 13 25  1  0  0  0  0
 13 32  1  0  0  0  0
 14 24  1  0  0  0  0
 14 28  1  0  0  0  0
 14 31  1  0  0  0  0
 15 29  1  0  0  0  0
 15 38  1  0  0  0  0
 15 47  1  0  0  0  0
 16 26  1  0  0  0  0
 16 40  1  0  0  0  0
 16 48  1  0  0  0  0
 17 36  1  0  0  0  0
 17 41  1  0  0  0  0
 17 43  1  0  0  0  0
 18 45  1  0  0  0  0
 18 46  1  0  0  0  0
 18105  1  0  0  0  0
 19 49  1  0  0  0  0
 19 52  1  0  0  0  0
 19110  1  0  0  0  0
 20 51  1  0  0  0  0
 20 58  1  0  0  0  0
 20113  1  0  0  0  0
 21 54  1  0  0  0  0
 21 56  1  0  0  0  0
 21117  1  0  0  0  0
 22 23  1  0  0  0  0
 22 28  1  0  0  0  0
 22 69  1  6  0  0  0
 23 27  1  0  0  0  0
 23 70  1  0  0  0  0
 23 71  1  0  0  0  0
 24 30  1  0  0  0  0
 24 45  1  0  0  0  0
 24 72  1  6  0  0  0
 25 27  1  0  0  0  0
 25 73  1  0  0  0  0
 25 74  1  0  0  0  0
 26 32  1  0  0  0  0
 26 34  1  0  0  0  0
 26 75  1  6  0  0  0
 27 76  1  0  0  0  0
 27 77  1  0  0  0  0
 29 35  1  0  0  0  0
 29 41  1  0  0  0  0
 29 78  1  6  0  0  0
 30 33  1  0  0  0  0
 30 79  1  0  0  0  0
 30 80  1  0  0  0  0
 31 33  1  0  0  0  0
 31 81  1  0  0  0  0
 31 82  1  0  0  0  0
 33 83  1  0  0  0  0
 33 84  1  0  0  0  0
 34 37  1  0  0  0  0
 34 85  1  0  0  0  0
 34 86  1  0  0  0  0
 35 39  1  0  0  0  0
 35 87  1  0  0  0  0
 35 88  1  0  0  0  0
 36 42  1  0  0  0  0
 36 49  1  0  0  0  0
 36 89  1  6  0  0  0
 37 40  1  0  0  0  0
 37 90  1  0  0  0  0
 37 91  1  0  0  0  0
 38 39  1  0  0  0  0
 38 92  1  0  0  0  0
 38 93  1  0  0  0  0
 39 94  1  0  0  0  0
 39 95  1  0  0  0  0
 40 96  1  0  0  0  0
 40 97  1  0  0  0  0
 42 44  1  0  0  0  0
 42 98  1  0  0  0  0
 42 99  1  0  0  0  0
 43 44  1  0  0  0  0
 43100  1  0  0  0  0
 43101  1  0  0  0  0
 44102  1  0  0  0  0
 44103  1  0  0  0  0
 46 47  1  0  0  0  0
 46 50  1  1  0  0  0
 46104  1  0  0  0  0
 48 51  1  0  0  0  0
 50 53  1  0  0  0  0
 50106  1  0  0  0  0
 50107  1  0  0  0  0
 51108  1  0  0  0  0
 51109  1  0  0  0  0
 52 55  1  1  0  0  0
 52 56  1  0  0  0  0
 52111  1  0  0  0  0
 53 59  2  0  0  0  0
 53 60  1  0  0  0  0
 54 57  1  0  0  0  0
 54 58  1  0  0  0  0
 54112  1  6  0  0  0
 55 61  1  0  0  0  0
 55114  1  0  0  0  0
 55115  1  0  0  0  0
 57 62  1  0  0  0  0
 57 63  1  6  0  0  0
 57116  1  0  0  0  0
 59 64  1  0  0  0  0
 59118  1  0  0  0  0
 60 65  2  0  0  0  0
 60119  1  0  0  0  0
 61120  1  0  0  0  0
 61121  1  0  0  0  0
 62 67  1  0  0  0  0
 62122  1  0  0  0  0
 62123  1  0  0  0  0
 63124  1  0  0  0  0
 63125  1  0  0  0  0
 63126  1  0  0  0  0
 64 66  2  0  0  0  0
 64127  1  0  0  0  0
 65 66  1  0  0  0  0
 65128  1  0  0  0  0
 67129  1  0  0  0  0
 67130  1  0  0  0  0
 67131  1  0  0  0  0
 68132  1  0  0  0  0
 68133  1  0  0  0  0
 68134  1  0  0  0  0
M  END
> <PUBCHEM_COMPOUND_CID>
102062686

> <PUBCHEM_COMPOUND_CANONICALIZED>
1

> <PUBCHEM_CACTVS_COMPLEXITY>
1970

> <PUBCHEM_CACTVS_HBOND_ACCEPTOR>
12

> <PUBCHEM_CACTVS_HBOND_DONOR>
5

> <PUBCHEM_CACTVS_ROTATABLE_BOND>
7

> <PUBCHEM_CACTVS_SUBSKEYS>
AAADcfB//ABAAAAAAAAAAAAAAAAAAWLFixYwAAAAAAAAAAABAAAAHgQQCAAADSzF2ASyBoPAAgqIAiFSEEBCAAAgIBAIiIGOCIgIZjKikTOUcAAk1hGImAeYyaCOIAAAAAAAAABAAAAAAAAAAAAAAAAAAA==

> <PUBCHEM_IUPAC_OPENEYE_NAME>
(1S,7S,13S,16S,22S,28S,31S,34S)-16-[(4-hydroxyphenyl)methyl]-34-[(1S)-1-methylpropyl]-31-(2-methylsulfinylethyl)-3,9,15,18,24,30,33,36,39-nonazahexacyclo[37.3.0.03,7.09,13.018,22.024,28]dotetracontane-2,8,14,17,23,29,32,35,38-nonone

> <PUBCHEM_IUPAC_CAS_NAME>
(1S,7S,13S,16S,22S,28S,31S,34S)-34-[(2S)-butan-2-yl]-16-[(4-hydroxyphenyl)methyl]-31-(2-methylsulfinylethyl)-3,9,15,18,24,30,33,36,39-nonazahexacyclo[37.3.0.03,7.09,13.018,22.024,28]dotetracontane-2,8,14,17,23,29,32,35,38-nonone

> <PUBCHEM_IUPAC_NAME_MARKUP>
(1<I>S</I>,7<I>S</I>,13<I>S</I>,16<I>S</I>,22<I>S</I>,28<I>S</I>,31<I>S</I>,34<I>S</I>)-34-[(2<I>S</I>)-butan-2-yl]-16-[(4-hydroxyphenyl)methyl]-31-(2-methylsulfinylethyl)-3,9,15,18,24,30,33,36,39-nonazahexacyclo[37.3.0.0<SUP>3,7</SUP>.0<SUP>9,13</SUP>.0<SUP>18,22</SUP>.0<SUP>24,28</SUP>]dotetracontane-2,8,14,17,23,29,32,35,38-nonone

> <PUBCHEM_IUPAC_NAME>
(1S,7S,13S,16S,22S,28S,31S,34S)-34-[(2S)-butan-2-yl]-16-[(4-hydroxyphenyl)methyl]-31-(2-methylsulfinylethyl)-3,9,15,18,24,30,33,36,39-nonazahexacyclo[37.3.0.03,7.09,13.018,22.024,28]dotetracontane-2,8,14,17,23,29,32,35,38-nonone

> <PUBCHEM_IUPAC_SYSTEMATIC_NAME>
(1S,7S,13S,16S,22S,28S,31S,34S)-34-[(2S)-butan-2-yl]-16-[(4-hydroxyphenyl)methyl]-31-(2-methylsulfinylethyl)-3,9,15,18,24,30,33,36,39-nonazahexacyclo[37.3.0.03,7.09,13.018,22.024,28]dotetracontane-2,8,14,17,23,29,32,35,38-nonone

> <PUBCHEM_IUPAC_TRADITIONAL_NAME>
(1S,7S,13S,16S,22S,28S,31S,34S)-16-(4-hydroxybenzyl)-34-[(1S)-1-methylpropyl]-31-(2-methylsulfinylethyl)-3,9,15,18,24,30,33,36,39-nonazahexacyclo[37.3.0.03,7.09,13.018,22.024,28]dotetracontane-2,8,14,17,23,29,32,35,38-nonone

> <PUBCHEM_IUPAC_INCHI>
InChI=1S/C47H67N9O11S/c1-4-28(2)39-43(62)48-27-38(58)52-20-7-12-35(52)45(64)56-24-9-14-37(56)47(66)54-22-6-11-34(54)42(61)50-32(26-29-15-17-30(57)18-16-29)44(63)55-23-8-13-36(55)46(65)53-21-5-10-33(53)41(60)49-31(40(59)51-39)19-25-68(3)67/h15-18,28,31-37,39,57H,4-14,19-27H2,1-3H3,(H,48,62)(H,49,60)(H,50,61)(H,51,59)/t28-,31-,32-,33-,34-,35-,36-,37-,39-,68?/m0/s1

> <PUBCHEM_IUPAC_INCHIKEY>
MODDKHZHELMWNE-XQQUXGHRSA-N

> <PUBCHEM_XLOGP3_AA>
0.5

> <PUBCHEM_EXACT_MASS>
965.468075

> <PUBCHEM_MOLECULAR_FORMULA>
C47H67N9O11S

> <PUBCHEM_MOLECULAR_WEIGHT>
966.2

> <PUBCHEM_OPENEYE_CAN_SMILES>
CCC(C)C1C(=O)NCC(=O)N2CCCC2C(=O)N3CCCC3C(=O)N4CCCC4C(=O)NC(C(=O)N5CCCC5C(=O)N6CCCC6C(=O)NC(C(=O)N1)CCS(=O)C)CC7=CC=C(C=C7)O

> <PUBCHEM_OPENEYE_ISO_SMILES>
CC[C@H](C)[C@H]1C(=O)NCC(=O)N2CCC[C@H]2C(=O)N3CCC[C@H]3C(=O)N4CCC[C@H]4C(=O)N[C@H](C(=O)N5CCC[C@H]5C(=O)N6CCC[C@H]6C(=O)N[C@H](C(=O)N1)CCS(=O)C)CC7=CC=C(C=C7)O

> <PUBCHEM_CACTVS_TPSA>
275

> <PUBCHEM_MONOISOTOPIC_WEIGHT>
965.468075

> <PUBCHEM_TOTAL_CHARGE>
0

> <PUBCHEM_HEAVY_ATOM_COUNT>
68

> <PUBCHEM_ATOM_DEF_STEREO_COUNT>
9

> <PUBCHEM_ATOM_UDEF_STEREO_COUNT>
1

> <PUBCHEM_BOND_DEF_STEREO_COUNT>
0

> <PUBCHEM_BOND_UDEF_STEREO_COUNT>
0

> <PUBCHEM_ISOTOPIC_ATOM_COUNT>
0

> <PUBCHEM_COMPONENT_COUNT>
1

> <PUBCHEM_CACTVS_TAUTO_COUNT>
-1

> <PUBCHEM_COORDINATE_TYPE>
1
5
255

> <PUBCHEM_BONDANNOTATIONS>
1  68  3
22  69  6
24  72  6
26  75  6
29  78  6
36  89  6
46  50  5
52  55  5
53  59  8
53  60  8
54  112  6
57  63  6
59  64  8
60  65  8
64  66  8
65  66  8

$$$$
