46853873
  -OEChem-11202011322D

181186  0     1  0  0  0  0  0999 V2000
   10.8813    0.0000    0.0000 Co  0  1  0  0  0  0  0  0  0  0  0  0
   15.2622   13.8313    0.0000 P   0  0  3  0  0  0  0  0  0  0  0  0
    9.1122    5.1452    0.0000 O   0  0  0  0  0  0  0  0  0  0  0  0
   11.7667    9.0897    0.0000 O   0  0  0  0  0  0  0  0  0  0  0  0
   12.8106    9.9596    0.0000 O   0  0  0  0  0  0  0  0  0  0  0  0
    3.3997    4.4025    0.0000 O   0  0  0  0  0  0  0  0  0  0  0  0
    2.9682    6.7531    0.0000 O   0  0  0  0  0  0  0  0  0  0  0  0
    9.0683   14.3391    0.0000 O   0  0  0  0  0  0  0  0  0  0  0  0
    1.5422   11.2974    0.0000 O   0  0  0  0  0  0  0  0  0  0  0  0
   14.8965   12.9006    0.0000 O   0  0  0  0  0  0  0  0  0  0  0  0
   15.6279   14.7620    0.0000 O   0  0  0  0  0  0  0  0  0  0  0  0
   16.1929   13.4656    0.0000 O   0  5  0  0  0  0  0  0  0  0  0  0
   14.3315   14.1970    0.0000 O   0  0  0  0  0  0  0  0  0  0  0  0
   18.0642   15.6339    0.0000 O   0  0  0  0  0  0  0  0  0  0  0  0
   17.1541   13.2116    0.0000 O   0  0  0  0  0  0  0  0  0  0  0  0
   17.1820   17.5270    0.0000 O   0  0  0  0  0  0  0  0  0  0  0  0
    6.8869    7.6612    0.0000 N   0  0  0  0  0  0  0  0  0  0  0  0
    8.3483    8.9940    0.0000 N   0  5  0  0  0  0  0  0  0  0  0  0
    5.4237    8.9940    0.0000 N   0  0  0  0  0  0  0  0  0  0  0  0
    6.8543   10.3267    0.0000 N   0  0  0  0  0  0  0  0  0  0  0  0
    8.2555    3.6399    0.0000 N   0  0  0  0  0  0  0  0  0  0  0  0
   12.2433    7.4246    0.0000 N   0  0  0  0  0  0  0  0  0  0  0  0
   12.5531   11.6725    0.0000 N   0  0  0  0  0  0  0  0  0  0  0  0
    4.8997    3.5364    0.0000 N   0  0  0  0  0  0  0  0  0  0  0  0
    1.4494    7.5859    0.0000 N   0  0  0  0  0  0  0  0  0  0  0  0
    7.6520   15.3360    0.0000 N   0  0  0  0  0  0  0  0  0  0  0  0
    0.4934    9.9190    0.0000 N   0  0  0  0  0  0  0  0  0  0  0  0
   19.1003   14.1841    0.0000 N   0  0  0  0  0  0  0  0  0  0  0  0
   20.2274   13.0352    0.0000 N   0  0  0  0  0  0  0  0  0  0  0  0
   12.6133    1.0000    0.0000 N   0  0  0  0  0  0  0  0  0  0  0  0
    7.6673    7.0762    0.0000 C   0  0  2  0  0  0  0  0  0  0  0  0
    7.3740    6.1345    0.0000 C   0  0  2  0  0  0  0  0  0  0  0  0
    8.9332    8.2787    0.0000 C   0  0  1  0  0  0  0  0  0  0  0  0
    9.8439    8.5394    0.0000 C   0  0  1  0  0  0  0  0  0  0  0  0
    6.3997    6.1345    0.0000 C   0  0  1  0  0  0  0  0  0  0  0  0
    9.8439    9.5136    0.0000 C   0  0  2  0  0  0  0  0  0  0  0  0
    6.1064    7.0436    0.0000 C   0  0  0  0  0  0  0  0  0  0  0  0
    7.3802    5.1345    0.0000 C   0  0  0  0  0  0  0  0  0  0  0  0
    8.9006    9.7743    0.0000 C   0  0  0  0  0  0  0  0  0  0  0  0
    8.5164    6.5480    0.0000 C   0  0  0  0  0  0  0  0  0  0  0  0
    8.3270    5.8314    0.0000 C   0  0  0  0  0  0  0  0  0  0  0  0
    5.8997    5.2685    0.0000 C   0  0  0  0  0  0  0  0  0  0  0  0
   10.5629    7.8444    0.0000 C   0  0  0  0  0  0  0  0  0  0  0  0
   10.8328    9.6623    0.0000 C   0  0  0  0  0  0  0  0  0  0  0  0
   10.0081   10.5001    0.0000 C   0  0  0  0  0  0  0  0  0  0  0  0
    5.1647    7.3370    0.0000 C   0  0  0  0  0  0  0  0  0  0  0  0
    8.6090   10.6835    0.0000 C   0  0  0  0  0  0  0  0  0  0  0  0
    4.8997    5.2685    0.0000 C   0  0  0  0  0  0  0  0  0  0  0  0
    8.2493    4.6399    0.0000 C   0  0  0  0  0  0  0  0  0  0  0  0
   11.1985   10.5930    0.0000 C   0  0  0  0  0  0  0  0  0  0  0  0
    3.9297    8.5068    0.0000 C   0  0  2  0  0  0  0  0  0  0  0  0
    4.8715    8.2461    0.0000 C   0  0  0  0  0  0  0  0  0  0  0  0
    7.6673   10.9768    0.0000 C   0  0  0  0  0  0  0  0  0  0  0  0
   11.5243    8.1196    0.0000 C   0  0  0  0  0  0  0  0  0  0  0  0
    7.3414   11.8859    0.0000 C   0  0  2  0  0  0  0  0  0  0  0  0
    3.9297    9.4810    0.0000 C   0  0  1  0  0  0  0  0  0  0  0  0
    6.3671   11.8859    0.0000 C   0  0  0  0  0  0  0  0  0  0  0  0
    4.4940    6.5952    0.0000 C   0  0  0  0  0  0  0  0  0  0  0  0
    9.3439   11.3616    0.0000 C   0  0  0  0  0  0  0  0  0  0  0  0
    4.8715    9.7417    0.0000 C   0  0  0  0  0  0  0  0  0  0  0  0
    6.0738   10.9442    0.0000 C   0  0  0  0  0  0  0  0  0  0  0  0
    2.9300    8.4847    0.0000 C   0  0  0  0  0  0  0  0  0  0  0  0
    3.6418    7.5492    0.0000 C   0  0  0  0  0  0  0  0  0  0  0  0
    7.9171   12.7036    0.0000 C   0  0  0  0  0  0  0  0  0  0  0  0
    3.1339   10.0865    0.0000 C   0  0  0  0  0  0  0  0  0  0  0  0
   12.1874   10.7417    0.0000 C   0  0  0  0  0  0  0  0  0  0  0  0
    4.3997    4.4025    0.0000 C   0  0  0  0  0  0  0  0  0  0  0  0
    5.1322   10.6835    0.0000 C   0  0  0  0  0  0  0  0  0  0  0  0
    6.3610   12.8859    0.0000 C   0  0  0  0  0  0  0  0  0  0  0  0
    5.4142   12.1891    0.0000 C   0  0  0  0  0  0  0  0  0  0  0  0
    7.4967   13.6110    0.0000 C   0  0  0  0  0  0  0  0  0  0  0  0
    2.2116    9.7000    0.0000 C   0  0  0  0  0  0  0  0  0  0  0  0
    2.4492    7.6079    0.0000 C   0  0  0  0  0  0  0  0  0  0  0  0
   13.5420   11.8211    0.0000 C   0  0  0  0  0  0  0  0  0  0  0  0
    8.0723   14.4287    0.0000 C   0  0  0  0  0  0  0  0  0  0  0  0
    1.4157   10.3055    0.0000 C   0  0  0  0  0  0  0  0  0  0  0  0
   13.9076   12.7519    0.0000 C   0  0  1  0  0  0  0  0  0  0  0  0
   13.2844   13.5339    0.0000 C   0  0  0  0  0  0  0  0  0  0  0  0
   16.6168   14.9107    0.0000 C   0  0  1  0  0  0  0  0  0  0  0  0
   17.3183   14.1981    0.0000 C   0  0  2  0  0  0  0  0  0  0  0  0
   17.0777   15.7981    0.0000 C   0  0  1  0  0  0  0  0  0  0  0  0
   18.2129   14.6451    0.0000 C   0  0  2  0  0  0  0  0  0  0  0  0
   16.6308   16.6927    0.0000 C   0  0  0  0  0  0  0  0  0  0  0  0
   19.9891   14.6292    0.0000 C   0  0  0  0  0  0  0  0  0  0  0  0
   19.2472   13.2009    0.0000 C   0  0  0  0  0  0  0  0  0  0  0  0
   20.6894   13.9153    0.0000 C   0  0  0  0  0  0  0  0  0  0  0  0
   20.2572   15.5926    0.0000 C   0  0  0  0  0  0  0  0  0  0  0  0
   21.6578   14.1649    0.0000 C   0  0  0  0  0  0  0  0  0  0  0  0
   21.2256   15.8422    0.0000 C   0  0  0  0  0  0  0  0  0  0  0  0
   21.9259   15.1283    0.0000 C   0  0  0  0  0  0  0  0  0  0  0  0
   21.4936   16.8056    0.0000 C   0  0  0  0  0  0  0  0  0  0  0  0
   22.8942   15.3779    0.0000 C   0  0  0  0  0  0  0  0  0  0  0  0
   11.7473    0.5000    0.0000 C   0  5  0  0  0  0  0  0  0  0  0  0
    9.3550    7.5407    0.0000 H   0  0  0  0  0  0  0  0  0  0  0  0
   10.4147    8.7815    0.0000 H   0  0  0  0  0  0  0  0  0  0  0  0
    5.7832    6.2000    0.0000 H   0  0  0  0  0  0  0  0  0  0  0  0
    6.7690    5.2384    0.0000 H   0  0  0  0  0  0  0  0  0  0  0  0
    7.1718    4.5506    0.0000 H   0  0  0  0  0  0  0  0  0  0  0  0
    8.1889    6.0216    0.0000 H   0  0  0  0  0  0  0  0  0  0  0  0
    9.0428    6.2206    0.0000 H   0  0  0  0  0  0  0  0  0  0  0  0
    8.8439    7.0745    0.0000 H   0  0  0  0  0  0  0  0  0  0  0  0
    8.1391    5.2406    0.0000 H   0  0  0  0  0  0  0  0  0  0  0  0
    8.9178    5.6434    0.0000 H   0  0  0  0  0  0  0  0  0  0  0  0
    8.5149    6.4222    0.0000 H   0  0  0  0  0  0  0  0  0  0  0  0
    5.7920    4.6579    0.0000 H   0  0  0  0  0  0  0  0  0  0  0  0
    6.4823    5.0564    0.0000 H   0  0  0  0  0  0  0  0  0  0  0  0
   10.0612    7.4802    0.0000 H   0  0  0  0  0  0  0  0  0  0  0  0
   10.8345    7.2870    0.0000 H   0  0  0  0  0  0  0  0  0  0  0  0
   10.8171    9.0425    0.0000 H   0  0  0  0  0  0  0  0  0  0  0  0
   11.4405    9.5392    0.0000 H   0  0  0  0  0  0  0  0  0  0  0  0
   10.6197   10.3983    0.0000 H   0  0  0  0  0  0  0  0  0  0  0  0
   10.1099   11.1116    0.0000 H   0  0  0  0  0  0  0  0  0  0  0  0
    9.3965   10.6018    0.0000 H   0  0  0  0  0  0  0  0  0  0  0  0
    5.0074    5.8791    0.0000 H   0  0  0  0  0  0  0  0  0  0  0  0
    4.3171    5.4806    0.0000 H   0  0  0  0  0  0  0  0  0  0  0  0
   11.2142   11.2128    0.0000 H   0  0  0  0  0  0  0  0  0  0  0  0
   10.5908   10.7161    0.0000 H   0  0  0  0  0  0  0  0  0  0  0  0
    7.0558   12.4362    0.0000 H   0  0  0  0  0  0  0  0  0  0  0  0
    3.3742    9.2056    0.0000 H   0  0  0  0  0  0  0  0  0  0  0  0
    4.0341    7.0111    0.0000 H   0  0  0  0  0  0  0  0  0  0  0  0
    4.0781    6.1354    0.0000 H   0  0  0  0  0  0  0  0  0  0  0  0
    4.9538    6.1794    0.0000 H   0  0  0  0  0  0  0  0  0  0  0  0
    9.7644   10.9060    0.0000 H   0  0  0  0  0  0  0  0  0  0  0  0
    9.7995   11.7821    0.0000 H   0  0  0  0  0  0  0  0  0  0  0  0
    8.9234   11.8173    0.0000 H   0  0  0  0  0  0  0  0  0  0  0  0
    3.0242    9.0976    0.0000 H   0  0  0  0  0  0  0  0  0  0  0  0
    2.3428    8.6839    0.0000 H   0  0  0  0  0  0  0  0  0  0  0  0
    3.0480    7.7277    0.0000 H   0  0  0  0  0  0  0  0  0  0  0  0
    3.4632    6.9554    0.0000 H   0  0  0  0  0  0  0  0  0  0  0  0
    4.2355    7.3706    0.0000 H   0  0  0  0  0  0  0  0  0  0  0  0
    8.3544   12.2641    0.0000 H   0  0  0  0  0  0  0  0  0  0  0  0
    8.4258   13.0580    0.0000 H   0  0  0  0  0  0  0  0  0  0  0  0
    3.5892   10.5072    0.0000 H   0  0  0  0  0  0  0  0  0  0  0  0
    2.7986   10.6080    0.0000 H   0  0  0  0  0  0  0  0  0  0  0  0
    4.6974   11.1255    0.0000 H   0  0  0  0  0  0  0  0  0  0  0  0
    8.7944    3.3332    0.0000 H   0  0  0  0  0  0  0  0  0  0  0  0
    7.7205    3.3266    0.0000 H   0  0  0  0  0  0  0  0  0  0  0  0
    6.9810   12.8897    0.0000 H   0  0  0  0  0  0  0  0  0  0  0  0
    6.3572   13.5059    0.0000 H   0  0  0  0  0  0  0  0  0  0  0  0
    5.7410   12.8821    0.0000 H   0  0  0  0  0  0  0  0  0  0  0  0
    5.6022   12.7799    0.0000 H   0  0  0  0  0  0  0  0  0  0  0  0
    4.8234   12.3771    0.0000 H   0  0  0  0  0  0  0  0  0  0  0  0
    5.2262   11.5983    0.0000 H   0  0  0  0  0  0  0  0  0  0  0  0
   12.8394    7.5952    0.0000 H   0  0  0  0  0  0  0  0  0  0  0  0
   12.0931    6.8230    0.0000 H   0  0  0  0  0  0  0  0  0  0  0  0
    7.0594   14.0505    0.0000 H   0  0  0  0  0  0  0  0  0  0  0  0
    6.9880   13.2566    0.0000 H   0  0  0  0  0  0  0  0  0  0  0  0
    1.7562    9.2792    0.0000 H   0  0  0  0  0  0  0  0  0  0  0  0
    2.5469    9.1785    0.0000 H   0  0  0  0  0  0  0  0  0  0  0  0
   12.1667   12.1573    0.0000 H   0  0  0  0  0  0  0  0  0  0  0  0
    4.5897    2.9995    0.0000 H   0  0  0  0  0  0  0  0  0  0  0  0
    5.5197    3.5364    0.0000 H   0  0  0  0  0  0  0  0  0  0  0  0
   13.5263   11.2013    0.0000 H   0  0  0  0  0  0  0  0  0  0  0  0
   14.1496   11.6981    0.0000 H   0  0  0  0  0  0  0  0  0  0  0  0
    1.1513    7.0422    0.0000 H   0  0  0  0  0  0  0  0  0  0  0  0
    1.1277    8.1158    0.0000 H   0  0  0  0  0  0  0  0  0  0  0  0
   14.1344   13.3289    0.0000 H   0  0  0  0  0  0  0  0  0  0  0  0
    8.0088   15.8430    0.0000 H   0  0  0  0  0  0  0  0  0  0  0  0
    7.0345   15.3916    0.0000 H   0  0  0  0  0  0  0  0  0  0  0  0
    0.0000   10.2944    0.0000 H   0  0  0  0  0  0  0  0  0  0  0  0
    0.4151    9.3039    0.0000 H   0  0  0  0  0  0  0  0  0  0  0  0
   13.7693   13.9203    0.0000 H   0  0  0  0  0  0  0  0  0  0  0  0
   12.8981   14.0188    0.0000 H   0  0  0  0  0  0  0  0  0  0  0  0
   12.7996   13.1475    0.0000 H   0  0  0  0  0  0  0  0  0  0  0  0
   16.2563   15.4151    0.0000 H   0  0  0  0  0  0  0  0  0  0  0  0
   16.7272   14.0111    0.0000 H   0  0  0  0  0  0  0  0  0  0  0  0
   17.4461   16.2968    0.0000 H   0  0  0  0  0  0  0  0  0  0  0  0
   18.7173   15.0055    0.0000 H   0  0  0  0  0  0  0  0  0  0  0  0
   16.1807   17.1190    0.0000 H   0  0  0  0  0  0  0  0  0  0  0  0
   16.1327   16.3234    0.0000 H   0  0  0  0  0  0  0  0  0  0  0  0
   17.6329   12.8177    0.0000 H   0  0  0  0  0  0  0  0  0  0  0  0
   18.8046   12.7667    0.0000 H   0  0  0  0  0  0  0  0  0  0  0  0
   16.9048   18.0817    0.0000 H   0  0  0  0  0  0  0  0  0  0  0  0
   19.8230   16.0352    0.0000 H   0  0  0  0  0  0  0  0  0  0  0  0
   22.0920   13.7223    0.0000 H   0  0  0  0  0  0  0  0  0  0  0  0
   22.0909   16.6394    0.0000 H   0  0  0  0  0  0  0  0  0  0  0  0
   21.6598   17.4029    0.0000 H   0  0  0  0  0  0  0  0  0  0  0  0
   20.8963   16.9718    0.0000 H   0  0  0  0  0  0  0  0  0  0  0  0
   23.0489   14.7775    0.0000 H   0  0  0  0  0  0  0  0  0  0  0  0
   23.4946   15.5326    0.0000 H   0  0  0  0  0  0  0  0  0  0  0  0
   22.7395   15.9782    0.0000 H   0  0  0  0  0  0  0  0  0  0  0  0
  2 10  1  0  0  0  0
  2 11  1  0  0  0  0
  2 12  1  0  0  0  0
  2 13  2  0  0  0  0
  3 49  2  0  0  0  0
  4 54  2  0  0  0  0
  5 66  2  0  0  0  0
  6 67  2  0  0  0  0
  7 73  2  0  0  0  0
  8 75  2  0  0  0  0
  9 76  2  0  0  0  0
 77 10  1  1  0  0  0
 79 11  1  6  0  0  0
 14 81  1  0  0  0  0
 14 82  1  0  0  0  0
 80 15  1  6  0  0  0
 15171  1  0  0  0  0
 16 83  1  0  0  0  0
 16173  1  0  0  0  0
 17 31  1  0  0  0  0
 17 37  2  0  0  0  0
 18 33  1  0  0  0  0
 18 39  1  0  0  0  0
 19 52  1  0  0  0  0
 19 60  2  0  0  0  0
 20 53  2  0  0  0  0
 20 61  1  0  0  0  0
 21 49  1  0  0  0  0
 21136  1  0  0  0  0
 21137  1  0  0  0  0
 22 54  1  0  0  0  0
 22144  1  0  0  0  0
 22145  1  0  0  0  0
 23 66  1  0  0  0  0
 23 74  1  0  0  0  0
 23150  1  0  0  0  0
 24 67  1  0  0  0  0
 24151  1  0  0  0  0
 24152  1  0  0  0  0
 25 73  1  0  0  0  0
 25155  1  0  0  0  0
 25156  1  0  0  0  0
 26 75  1  0  0  0  0
 26158  1  0  0  0  0
 26159  1  0  0  0  0
 27 76  1  0  0  0  0
 27160  1  0  0  0  0
 27161  1  0  0  0  0
 82 28  1  6  0  0  0
 28 84  1  0  0  0  0
 28 85  1  0  0  0  0
 29 85  2  0  0  0  0
 29 86  1  0  0  0  0
 30 93  3  0  0  0  0
 31 32  1  0  0  0  0
 31 33  1  0  0  0  0
 31 40  1  6  0  0  0
 32 35  1  0  0  0  0
 32 38  1  0  0  0  0
 32 41  1  6  0  0  0
 33 34  1  0  0  0  0
 33 94  1  1  0  0  0
 34 36  1  0  0  0  0
 34 43  1  1  0  0  0
 34 95  1  0  0  0  0
 35 37  1  0  0  0  0
 35 42  1  6  0  0  0
 35 96  1  0  0  0  0
 36 39  1  0  0  0  0
 36 44  1  0  0  0  0
 36 45  1  1  0  0  0
 37 46  1  0  0  0  0
 38 49  1  0  0  0  0
 38 97  1  0  0  0  0
 38 98  1  0  0  0  0
 39 47  2  0  0  0  0
 40 99  1  0  0  0  0
 40100  1  0  0  0  0
 40101  1  0  0  0  0
 41102  1  0  0  0  0
 41103  1  0  0  0  0
 41104  1  0  0  0  0
 42 48  1  0  0  0  0
 42105  1  0  0  0  0
 42106  1  0  0  0  0
 43 54  1  0  0  0  0
 43107  1  0  0  0  0
 43108  1  0  0  0  0
 44 50  1  0  0  0  0
 44109  1  0  0  0  0
 44110  1  0  0  0  0
 45111  1  0  0  0  0
 45112  1  0  0  0  0
 45113  1  0  0  0  0
 46 52  2  0  0  0  0
 46 58  1  0  0  0  0
 47 53  1  0  0  0  0
 47 59  1  0  0  0  0
 48 67  1  0  0  0  0
 48114  1  0  0  0  0
 48115  1  0  0  0  0
 50 66  1  0  0  0  0
 50116  1  0  0  0  0
 50117  1  0  0  0  0
 51 52  1  0  0  0  0
 51 56  1  0  0  0  0
 51 62  1  0  0  0  0
 51 63  1  6  0  0  0
 53 55  1  0  0  0  0
 55 57  1  0  0  0  0
 55 64  1  6  0  0  0
 55118  1  0  0  0  0
 56 60  1  0  0  0  0
 56 65  1  6  0  0  0
 56119  1  0  0  0  0
 57 61  1  0  0  0  0
 57 69  1  0  0  0  0
 57 70  1  0  0  0  0
 58120  1  0  0  0  0
 58121  1  0  0  0  0
 58122  1  0  0  0  0
 59123  1  0  0  0  0
 59124  1  0  0  0  0
 59125  1  0  0  0  0
 60 68  1  0  0  0  0
 61 68  2  0  0  0  0
 62 73  1  0  0  0  0
 62126  1  0  0  0  0
 62127  1  0  0  0  0
 63128  1  0  0  0  0
 63129  1  0  0  0  0
 63130  1  0  0  0  0
 64 71  1  0  0  0  0
 64131  1  0  0  0  0
 64132  1  0  0  0  0
 65 72  1  0  0  0  0
 65133  1  0  0  0  0
 65134  1  0  0  0  0
 68135  1  0  0  0  0
 69138  1  0  0  0  0
 69139  1  0  0  0  0
 69140  1  0  0  0  0
 70141  1  0  0  0  0
 70142  1  0  0  0  0
 70143  1  0  0  0  0
 71 75  1  0  0  0  0
 71146  1  0  0  0  0
 71147  1  0  0  0  0
 72 76  1  0  0  0  0
 72148  1  0  0  0  0
 72149  1  0  0  0  0
 74 77  1  0  0  0  0
 74153  1  0  0  0  0
 74154  1  0  0  0  0
 77 78  1  0  0  0  0
 77157  1  0  0  0  0
 78162  1  0  0  0  0
 78163  1  0  0  0  0
 78164  1  0  0  0  0
 79 80  1  0  0  0  0
 79 81  1  0  0  0  0
 79165  1  0  0  0  0
 80 82  1  0  0  0  0
 80166  1  0  0  0  0
 81 83  1  1  0  0  0
 81167  1  0  0  0  0
 82168  1  0  0  0  0
 83169  1  0  0  0  0
 83170  1  0  0  0  0
 84 86  2  0  0  0  0
 84 87  1  0  0  0  0
 85172  1  0  0  0  0
 86 88  1  0  0  0  0
 87 89  2  0  0  0  0
 87174  1  0  0  0  0
 88 90  2  0  0  0  0
 88175  1  0  0  0  0
 89 90  1  0  0  0  0
 89 91  1  0  0  0  0
 90 92  1  0  0  0  0
 91176  1  0  0  0  0
 91177  1  0  0  0  0
 91178  1  0  0  0  0
 92179  1  0  0  0  0
 92180  1  0  0  0  0
 92181  1  0  0  0  0
M  CHG  4   1   3  12  -1  18  -1  93  -1
M  END
> <PUBCHEM_COMPOUND_CID>
46853873

> <PUBCHEM_COMPOUND_CANONICALIZED>
1

> <PUBCHEM_CACTVS_COMPLEXITY>
3150

> <PUBCHEM_CACTVS_HBOND_ACCEPTOR>
21

> <PUBCHEM_CACTVS_HBOND_DONOR>
9

> <PUBCHEM_CACTVS_ROTATABLE_BOND>
26

> <PUBCHEM_CACTVS_SUBSKEYS>
AAADcfB//AIAAAAQAAAAAAAAAAAAAWLEiBAwAAAAAAAAAFgB8AAAHgAQCCAAD7zhngY30LfMFxC4QyVzdICCgC0xEqAB2KE4dJiLeLLAmZGeYAhvlgLbyCf8ucKfiAAAQAAQACAQAACAACAAQAAAAAAAAA==

> <PUBCHEM_IUPAC_OPENEYE_NAME>
cobaltic;[(2R,3S,4R,5S)-5-(5,6-dimethylbenzimidazol-1-yl)-4-hydroxy-2-(hydroxymethyl)tetrahydrofuran-3-yl] [(1R)-1-methyl-2-[3-[(1R,2R,3R,4Z,7S,9Z,12S,13S,14Z,17S,18S,19R)-2,13,18-tris(2-amino-2-oxo-ethyl)-7,12,17-tris(3-amino-3-oxo-propyl)-3,5,8,8,13,15,18,19-octamethyl-2,7,12,17-tetrahydro-1H-corrin-21-id-3-yl]propanoylamino]ethyl] phosphate;cyanide

> <PUBCHEM_IUPAC_CAS_NAME>
cobalt(3+);[(2R,3S,4R,5S)-5-(5,6-dimethyl-1-benzimidazolyl)-4-hydroxy-2-(hydroxymethyl)-3-oxolanyl] [(2R)-1-[[1-oxo-3-[(1R,2R,3R,4Z,7S,9Z,12S,13S,14Z,17S,18S,19R)-2,13,18-tris(2-amino-2-oxoethyl)-7,12,17-tris(3-amino-3-oxopropyl)-3,5,8,8,13,15,18,19-octamethyl-2,7,12,17-tetrahydro-1H-corrin-21-id-3-yl]propyl]amino]propan-2-yl] phosphate;cyanide

> <PUBCHEM_IUPAC_NAME_MARKUP>
cobalt(3+);[(2<I>R</I>,3<I>S</I>,4<I>R</I>,5<I>S</I>)-5-(5,6-dimethylbenzimidazol-1-yl)-4-hydroxy-2-(hydroxymethyl)oxolan-3-yl] [(2<I>R</I>)-1-[3-[(1<I>R</I>,2<I>R</I>,3<I>R</I>,4<I>Z</I>,7<I>S</I>,9<I>Z</I>,12<I>S</I>,13<I>S</I>,14<I>Z</I>,17<I>S</I>,18<I>S</I>,19<I>R</I>)-2,13,18-tris(2-amino-2-oxoethyl)-7,12,17-tris(3-amino-3-oxopropyl)-3,5,8,8,13,15,18,19-octamethyl-2,7,12,17-tetrahydro-1<I>H</I>-corrin-21-id-3-yl]propanoylamino]propan-2-yl] phosphate;cyanide

> <PUBCHEM_IUPAC_NAME>
cobalt(3+);[(2R,3S,4R,5S)-5-(5,6-dimethylbenzimidazol-1-yl)-4-hydroxy-2-(hydroxymethyl)oxolan-3-yl] [(2R)-1-[3-[(1R,2R,3R,4Z,7S,9Z,12S,13S,14Z,17S,18S,19R)-2,13,18-tris(2-amino-2-oxoethyl)-7,12,17-tris(3-amino-3-oxopropyl)-3,5,8,8,13,15,18,19-octamethyl-2,7,12,17-tetrahydro-1H-corrin-21-id-3-yl]propanoylamino]propan-2-yl] phosphate;cyanide

> <PUBCHEM_IUPAC_SYSTEMATIC_NAME>
cobalt(3+);[(2R,3S,4R,5S)-5-(5,6-dimethylbenzimidazol-1-yl)-2-(hydroxymethyl)-4-oxidanyl-oxolan-3-yl] [(2R)-1-[3-[(1R,2R,3R,4Z,7S,9Z,12S,13S,14Z,17S,18S,19R)-2,13,18-tris(2-azanyl-2-oxidanylidene-ethyl)-7,12,17-tris(3-azanyl-3-oxidanylidene-propyl)-3,5,8,8,13,15,18,19-octamethyl-2,7,12,17-tetrahydro-1H-corrin-21-id-3-yl]propanoylamino]propan-2-yl] phosphate;cyanide

> <PUBCHEM_IUPAC_TRADITIONAL_NAME>
cobaltic;[(2R,3S,4R,5S)-5-(5,6-dimethylbenzimidazol-1-yl)-4-hydroxy-2-methylol-tetrahydrofuran-3-yl] [(1R)-1-methyl-2-[3-[(1R,2R,3R,4Z,7S,9Z,12S,13S,14Z,17S,18S,19R)-2,13,18-tris(2-amino-2-keto-ethyl)-7,12,17-tris(3-amino-3-keto-propyl)-3,5,8,8,13,15,18,19-octamethyl-2,7,12,17-tetrahydro-1H-corrin-21-id-3-yl]propanoylamino]ethyl] phosphate;cyanide

> <PUBCHEM_IUPAC_INCHI>
InChI=1S/C62H90N13O14P.CN.Co/c1-29-20-39-40(21-30(29)2)75(28-70-39)57-52(84)53(41(27-76)87-57)89-90(85,86)88-31(3)26-69-49(83)18-19-59(8)37(22-46(66)80)56-62(11)61(10,25-48(68)82)36(14-17-45(65)79)51(74-62)33(5)55-60(9,24-47(67)81)34(12-15-43(63)77)38(71-55)23-42-58(6,7)35(13-16-44(64)78)50(72-42)32(4)54(59)73-56;1-2;/h20-21,23,28,31,34-37,41,52-53,56-57,76,84H,12-19,22,24-27H2,1-11H3,(H15,63,64,65,66,67,68,69,71,72,73,74,77,78,79,80,81,82,83,85,86);;/q;-1;+3/p-2/t31-,34-,35-,36-,37+,41-,52-,53-,56-,57+,59-,60+,61+,62+;;/m1../s1

> <PUBCHEM_IUPAC_INCHIKEY>
FDJOLVPMNUYSCM-WZHZPDAFSA-L

> <PUBCHEM_EXACT_MASS>
1354.567399

> <PUBCHEM_MOLECULAR_FORMULA>
C63H88CoN14O14P

> <PUBCHEM_MOLECULAR_WEIGHT>
1355.4

> <PUBCHEM_OPENEYE_CAN_SMILES>
CC1=CC2=C(C=C1C)N(C=N2)C3C(C(C(O3)CO)OP(=O)([O-])OC(C)CNC(=O)CCC4(C(C5C6(C(C(C(=N6)C(=C7C(C(C(=N7)C=C8C(C(C(=N8)C(=C4[N-]5)C)CCC(=O)N)(C)C)CCC(=O)N)(C)CC(=O)N)C)CCC(=O)N)(C)CC(=O)N)C)CC(=O)N)C)O.[C-]#N.[Co+3]

> <PUBCHEM_OPENEYE_ISO_SMILES>
CC1=CC2=C(C=C1C)N(C=N2)[C@@H]3[C@@H]([C@@H]([C@H](O3)CO)OP(=O)([O-])O[C@H](C)CNC(=O)CC[C@@]\4([C@H]([C@@H]5[C@]6([C@@]([C@@H](C(=N6)/C(=C\7/[C@@]([C@@H](C(=N7)/C=C\8/C([C@@H](C(=N8)/C(=C4\[N-]5)/C)CCC(=O)N)(C)C)CCC(=O)N)(C)CC(=O)N)/C)CCC(=O)N)(C)CC(=O)N)C)CC(=O)N)C)O.[C-]#N.[Co+3]

> <PUBCHEM_CACTVS_TPSA>
476

> <PUBCHEM_MONOISOTOPIC_WEIGHT>
1354.567399

> <PUBCHEM_TOTAL_CHARGE>
0

> <PUBCHEM_HEAVY_ATOM_COUNT>
93

> <PUBCHEM_ATOM_DEF_STEREO_COUNT>
14

> <PUBCHEM_ATOM_UDEF_STEREO_COUNT>
0

> <PUBCHEM_BOND_DEF_STEREO_COUNT>
3

> <PUBCHEM_BOND_UDEF_STEREO_COUNT>
0

> <PUBCHEM_ISOTOPIC_ATOM_COUNT>
0

> <PUBCHEM_COMPONENT_COUNT>
3

> <PUBCHEM_CACTVS_TAUTO_COUNT>
-1

> <PUBCHEM_NONSTANDARDBOND>
1  93  6

> <PUBCHEM_COORDINATE_TYPE>
1
5
255

> <PUBCHEM_BONDANNOTATIONS>
77  10  5
79  11  6
80  15  6
82  28  6
28  84  8
28  85  8
29  85  8
29  86  8
31  40  6
32  41  6
33  94  5
34  43  5
35  42  6
36  45  5
51  63  6
55  64  6
56  65  6
81  83  5
84  86  8
84  87  8
86  88  8
87  89  8
88  90  8
89  90  8

$$$$
