21626480
  -OEChem-09132005132D

180189  0     1  0  0  0  0  0999 V2000
   21.8779    3.1999    0.0000 O   0  0  0  0  0  0  0  0  0  0  0  0
   12.9292    0.1823    0.0000 O   0  0  0  0  0  0  0  0  0  0  0  0
   13.7953    1.6823    0.0000 O   0  0  0  0  0  0  0  0  0  0  0  0
   23.6098    3.1799    0.0000 O   0  0  0  0  0  0  0  0  0  0  0  0
   21.8547    1.2001    0.0000 O   0  0  0  0  0  0  0  0  0  0  0  0
   11.1972    0.1823    0.0000 O   0  0  0  0  0  0  0  0  0  0  0  0
   23.5751    0.1801    0.0000 O   0  0  0  0  0  0  0  0  0  0  0  0
   25.3186    1.1600    0.0000 O   0  0  0  0  0  0  0  0  0  0  0  0
   12.9292    2.1823    0.0000 O   0  0  0  0  0  0  0  0  0  0  0  0
   11.1972    3.1823    0.0000 O   0  0  0  0  0  0  0  0  0  0  0  0
   22.7034   -0.3098    0.0000 O   0  0  0  0  0  0  0  0  0  0  0  0
    9.4651    2.1823    0.0000 O   0  0  0  0  0  0  0  0  0  0  0  0
    9.4651   -0.8177    0.0000 O   0  0  0  0  0  0  0  0  0  0  0  0
   20.1112    0.2202    0.0000 O   0  0  0  0  0  0  0  0  0  0  0  0
   20.0881   -1.7797    0.0000 O   0  0  0  0  0  0  0  0  0  0  0  0
   21.8085   -2.7997    0.0000 O   0  0  0  0  0  0  0  0  0  0  0  0
    7.7331   -0.8177    0.0000 O   0  0  0  0  0  0  0  0  0  0  0  0
    9.4651   -2.8177    0.0000 O   0  0  0  0  0  0  0  0  0  0  0  0
    7.7331   -3.8177    0.0000 O   0  0  0  0  0  0  0  0  0  0  0  0
    6.0010   -2.8177    0.0000 O   0  0  0  0  0  0  0  0  0  0  0  0
    6.0010    0.1823    0.0000 O   0  0  0  0  0  0  0  0  0  0  0  0
    5.1350   -1.3177    0.0000 O   0  0  0  0  0  0  0  0  0  0  0  0
    4.2690   -3.8177    0.0000 O   0  0  0  0  0  0  0  0  0  0  0  0
    2.5369   -2.8177    0.0000 O   0  0  0  0  0  0  0  0  0  0  0  0
    2.5369   -0.8177    0.0000 O   0  0  0  0  0  0  0  0  0  0  0  0
   17.3390    1.6826    0.0000 C   0  0  2  0  0  0  0  0  0  0  0  0
   18.2011    1.1759    0.0000 C   0  0  1  0  0  0  0  0  0  0  0  0
   19.1150    1.6757    0.0000 C   0  0  2  0  0  0  0  0  0  0  0  0
   16.4691    1.1892    0.0000 C   0  0  1  0  0  0  0  0  0  0  0  0
   19.1311    2.7172    0.0000 C   0  0  2  0  0  0  0  0  0  0  0  0
   17.3309    2.7242    0.0000 C   0  0  0  0  0  0  0  0  0  0  0  0
   20.0707    3.2597    0.0000 C   0  0  0  0  0  0  0  0  0  0  0  0
   18.2330    3.2450    0.0000 C   0  0  0  0  0  0  0  0  0  0  0  0
   16.4614    0.1893    0.0000 C   0  0  0  0  0  0  0  0  0  0  0  0
   15.5634   -0.3385    0.0000 C   0  0  1  0  0  0  0  0  0  0  0  0
   18.1934    0.1759    0.0000 C   0  0  0  0  0  0  0  0  0  0  0  0
   20.0375    1.1045    0.0000 C   0  0  0  0  0  0  0  0  0  0  0  0
   15.5793    1.7308    0.0000 C   0  0  0  0  0  0  0  0  0  0  0  0
   14.6613    0.1823    0.0000 C   0  0  1  0  0  0  0  0  0  0  0  0
   16.7021    2.4535    0.0000 C   0  0  0  0  0  0  0  0  0  0  0  0
   21.0061    2.7100    0.0000 C   0  0  2  0  0  0  0  0  0  0  0  0
   14.6693    1.2239    0.0000 C   0  0  0  0  0  0  0  0  0  0  0  0
   19.0996    0.6758    0.0000 C   0  0  0  0  0  0  0  0  0  0  0  0
   17.3236   -0.3174    0.0000 C   0  0  0  0  0  0  0  0  0  0  0  0
   20.9894    1.6251    0.0000 C   0  0  0  0  0  0  0  0  0  0  0  0
   16.1343    2.1316    0.0000 C   0  0  0  0  0  0  0  0  0  0  0  0
   15.5801   -1.4233    0.0000 C   0  0  0  0  0  0  0  0  0  0  0  0
   13.7134   -0.3456    0.0000 C   0  0  0  0  0  0  0  0  0  0  0  0
   14.6447   -1.9731    0.0000 C   0  0  0  0  0  0  0  0  0  0  0  0
   20.5740    4.1238    0.0000 C   0  0  0  0  0  0  0  0  0  0  0  0
   19.5740    4.1277    0.0000 C   0  0  0  0  0  0  0  0  0  0  0  0
   13.7050   -1.4306    0.0000 C   0  0  0  0  0  0  0  0  0  0  0  0
   13.7953    0.6823    0.0000 C   0  0  0  0  0  0  0  0  0  0  0  0
   15.1480   -2.8372    0.0000 C   0  0  0  0  0  0  0  0  0  0  0  0
   14.1480   -2.8410    0.0000 C   0  0  0  0  0  0  0  0  0  0  0  0
   22.7380    2.6900    0.0000 C   0  0  2  0  0  0  0  0  0  0  0  0
   22.7265    1.6900    0.0000 C   0  0  1  0  0  0  0  0  0  0  0  0
   12.0632    0.6823    0.0000 C   0  0  2  0  0  0  0  0  0  0  0  0
   23.5867    1.1800    0.0000 C   0  0  2  0  0  0  0  0  0  0  0  0
   24.4700    2.6699    0.0000 C   0  0  0  0  0  0  0  0  0  0  0  0
   24.4584    1.6700    0.0000 C   0  0  2  0  0  0  0  0  0  0  0  0
   12.0632    1.6823    0.0000 C   0  0  1  0  0  0  0  0  0  0  0  0
   11.1972    2.1823    0.0000 C   0  0  2  0  0  0  0  0  0  0  0  0
   10.3312    0.6823    0.0000 C   0  0  1  0  0  0  0  0  0  0  0  0
   10.3312    1.6823    0.0000 C   0  0  1  0  0  0  0  0  0  0  0  0
   21.8432    0.2001    0.0000 C   0  0  2  0  0  0  0  0  0  0  0  0
   20.9714   -0.2898    0.0000 C   0  0  1  0  0  0  0  0  0  0  0  0
    9.4651    0.1823    0.0000 C   0  0  0  0  0  0  0  0  0  0  0  0
   20.9599   -1.2897    0.0000 C   0  0  1  0  0  0  0  0  0  0  0  0
   22.6918   -1.3098    0.0000 C   0  0  2  0  0  0  0  0  0  0  0  0
   21.8200   -1.7997    0.0000 C   0  0  2  0  0  0  0  0  0  0  0  0
   23.5520   -1.8198    0.0000 C   0  0  0  0  0  0  0  0  0  0  0  0
    8.5991   -1.3177    0.0000 C   0  0  2  0  0  0  0  0  0  0  0  0
    8.5991   -2.3177    0.0000 C   0  0  1  0  0  0  0  0  0  0  0  0
    7.7331   -2.8177    0.0000 C   0  0  2  0  0  0  0  0  0  0  0  0
    6.8671   -1.3177    0.0000 C   0  0  1  0  0  0  0  0  0  0  0  0
    6.8671   -2.3177    0.0000 C   0  0  1  0  0  0  0  0  0  0  0  0
    6.0010   -0.8177    0.0000 C   0  0  0  0  0  0  0  0  0  0  0  0
    5.1350   -2.3177    0.0000 C   0  0  2  0  0  0  0  0  0  0  0  0
    4.2690   -2.8177    0.0000 C   0  0  1  0  0  0  0  0  0  0  0  0
    3.4030   -2.3177    0.0000 C   0  0  1  0  0  0  0  0  0  0  0  0
    4.2690   -0.8177    0.0000 C   0  0  2  0  0  0  0  0  0  0  0  0
    3.4030   -1.3177    0.0000 C   0  0  2  0  0  0  0  0  0  0  0  0
    4.2690    0.1823    0.0000 C   0  0  0  0  0  0  0  0  0  0  0  0
   18.9306    0.7396    0.0000 H   0  0  0  0  0  0  0  0  0  0  0  0
   19.1343    3.5672    0.0000 H   0  0  0  0  0  0  0  0  0  0  0  0
   17.1174    3.3062    0.0000 H   0  0  0  0  0  0  0  0  0  0  0  0
   16.7209    2.6134    0.0000 H   0  0  0  0  0  0  0  0  0  0  0  0
   18.6340    3.7179    0.0000 H   0  0  0  0  0  0  0  0  0  0  0  0
   17.8357    3.7209    0.0000 H   0  0  0  0  0  0  0  0  0  0  0  0
   16.3044   -0.7549    0.0000 H   0  0  0  0  0  0  0  0  0  0  0  0
   18.4010   -0.4083    0.0000 H   0  0  0  0  0  0  0  0  0  0  0  0
   18.8048    0.2789    0.0000 H   0  0  0  0  0  0  0  0  0  0  0  0
   19.6257    0.6410    0.0000 H   0  0  0  0  0  0  0  0  0  0  0  0
   20.4237    0.6195    0.0000 H   0  0  0  0  0  0  0  0  0  0  0  0
   15.9875    2.1974    0.0000 H   0  0  0  0  0  0  0  0  0  0  0  0
   15.1894    2.2128    0.0000 H   0  0  0  0  0  0  0  0  0  0  0  0
   17.1801    2.8484    0.0000 H   0  0  0  0  0  0  0  0  0  0  0  0
   16.3073    2.9315    0.0000 H   0  0  0  0  0  0  0  0  0  0  0  0
   16.2241    2.0587    0.0000 H   0  0  0  0  0  0  0  0  0  0  0  0
   21.5388    2.3928    0.0000 H   0  0  0  0  0  0  0  0  0  0  0  0
   14.4648    1.8092    0.0000 H   0  0  0  0  0  0  0  0  0  0  0  0
   14.0577    1.1226    0.0000 H   0  0  0  0  0  0  0  0  0  0  0  0
   18.4797    0.6854    0.0000 H   0  0  0  0  0  0  0  0  0  0  0  0
   19.0900    0.0559    0.0000 H   0  0  0  0  0  0  0  0  0  0  0  0
   19.7195    0.6663    0.0000 H   0  0  0  0  0  0  0  0  0  0  0  0
   17.3188   -0.9374    0.0000 H   0  0  0  0  0  0  0  0  0  0  0  0
   21.1894    1.0383    0.0000 H   0  0  0  0  0  0  0  0  0  0  0  0
   21.6018    1.7218    0.0000 H   0  0  0  0  0  0  0  0  0  0  0  0
   16.7186    2.3391    0.0000 H   0  0  0  0  0  0  0  0  0  0  0  0
   15.9268    2.7158    0.0000 H   0  0  0  0  0  0  0  0  0  0  0  0
   15.5501    1.9240    0.0000 H   0  0  0  0  0  0  0  0  0  0  0  0
   15.7981   -2.0037    0.0000 H   0  0  0  0  0  0  0  0  0  0  0  0
   16.1892   -1.3078    0.0000 H   0  0  0  0  0  0  0  0  0  0  0  0
   13.5089    0.2397    0.0000 H   0  0  0  0  0  0  0  0  0  0  0  0
   13.1018   -0.4470    0.0000 H   0  0  0  0  0  0  0  0  0  0  0  0
   21.1098    3.8117    0.0000 H   0  0  0  0  0  0  0  0  0  0  0  0
   20.8861    4.6595    0.0000 H   0  0  0  0  0  0  0  0  0  0  0  0
   20.0383    4.4359    0.0000 H   0  0  0  0  0  0  0  0  0  0  0  0
   20.1122    4.4356    0.0000 H   0  0  0  0  0  0  0  0  0  0  0  0
   19.2661    4.6658    0.0000 H   0  0  0  0  0  0  0  0  0  0  0  0
   19.0359    3.8197    0.0000 H   0  0  0  0  0  0  0  0  0  0  0  0
   13.0950   -1.3198    0.0000 H   0  0  0  0  0  0  0  0  0  0  0  0
   13.4915   -2.0126    0.0000 H   0  0  0  0  0  0  0  0  0  0  0  0
   14.6123   -3.1492    0.0000 H   0  0  0  0  0  0  0  0  0  0  0  0
   15.4601   -3.3729    0.0000 H   0  0  0  0  0  0  0  0  0  0  0  0
   15.6837   -2.5251    0.0000 H   0  0  0  0  0  0  0  0  0  0  0  0
   13.6099   -2.5331    0.0000 H   0  0  0  0  0  0  0  0  0  0  0  0
   13.8401   -3.3791    0.0000 H   0  0  0  0  0  0  0  0  0  0  0  0
   14.6861   -3.1489    0.0000 H   0  0  0  0  0  0  0  0  0  0  0  0
   22.1976    2.3862    0.0000 H   0  0  0  0  0  0  0  0  0  0  0  0
   22.7193    1.0701    0.0000 H   0  0  0  0  0  0  0  0  0  0  0  0
   12.6002    0.9923    0.0000 H   0  0  0  0  0  0  0  0  0  0  0  0
   24.1200    0.8639    0.0000 H   0  0  0  0  0  0  0  0  0  0  0  0
   25.0793    2.5552    0.0000 H   0  0  0  0  0  0  0  0  0  0  0  0
   24.6888    3.2500    0.0000 H   0  0  0  0  0  0  0  0  0  0  0  0
   24.9989    1.9738    0.0000 H   0  0  0  0  0  0  0  0  0  0  0  0
   12.0632    2.3023    0.0000 H   0  0  0  0  0  0  0  0  0  0  0  0
   10.6603    2.4923    0.0000 H   0  0  0  0  0  0  0  0  0  0  0  0
   10.3312    0.0623    0.0000 H   0  0  0  0  0  0  0  0  0  0  0  0
   10.3312    2.3023    0.0000 H   0  0  0  0  0  0  0  0  0  0  0  0
   21.3099    0.5163    0.0000 H   0  0  0  0  0  0  0  0  0  0  0  0
   24.1084   -0.1361    0.0000 H   0  0  0  0  0  0  0  0  0  0  0  0
   25.8591    1.4638    0.0000 H   0  0  0  0  0  0  0  0  0  0  0  0
   12.9292    2.8023    0.0000 H   0  0  0  0  0  0  0  0  0  0  0  0
   20.4309   -0.5936    0.0000 H   0  0  0  0  0  0  0  0  0  0  0  0
    9.2531    0.7649    0.0000 H   0  0  0  0  0  0  0  0  0  0  0  0
    8.8546    0.0747    0.0000 H   0  0  0  0  0  0  0  0  0  0  0  0
   11.7341    3.4923    0.0000 H   0  0  0  0  0  0  0  0  0  0  0  0
   20.9527   -1.9097    0.0000 H   0  0  0  0  0  0  0  0  0  0  0  0
    9.4651    2.8023    0.0000 H   0  0  0  0  0  0  0  0  0  0  0  0
   23.2323   -1.0060    0.0000 H   0  0  0  0  0  0  0  0  0  0  0  0
   22.3534   -2.1159    0.0000 H   0  0  0  0  0  0  0  0  0  0  0  0
   19.5708   -0.0836    0.0000 H   0  0  0  0  0  0  0  0  0  0  0  0
   23.2358   -2.3531    0.0000 H   0  0  0  0  0  0  0  0  0  0  0  0
   24.0853   -2.1359    0.0000 H   0  0  0  0  0  0  0  0  0  0  0  0
   23.8682   -1.2864    0.0000 H   0  0  0  0  0  0  0  0  0  0  0  0
    8.5991   -0.6977    0.0000 H   0  0  0  0  0  0  0  0  0  0  0  0
   20.0809   -2.3996    0.0000 H   0  0  0  0  0  0  0  0  0  0  0  0
   22.3418   -3.1158    0.0000 H   0  0  0  0  0  0  0  0  0  0  0  0
    8.5991   -2.9377    0.0000 H   0  0  0  0  0  0  0  0  0  0  0  0
    7.1962   -3.1277    0.0000 H   0  0  0  0  0  0  0  0  0  0  0  0
    6.8671   -0.6977    0.0000 H   0  0  0  0  0  0  0  0  0  0  0  0
    6.3301   -2.0077    0.0000 H   0  0  0  0  0  0  0  0  0  0  0  0
   10.0021   -2.5077    0.0000 H   0  0  0  0  0  0  0  0  0  0  0  0
    5.3905   -0.7100    0.0000 H   0  0  0  0  0  0  0  0  0  0  0  0
    5.7890   -1.4003    0.0000 H   0  0  0  0  0  0  0  0  0  0  0  0
    8.2700   -4.1277    0.0000 H   0  0  0  0  0  0  0  0  0  0  0  0
    5.1350   -2.9377    0.0000 H   0  0  0  0  0  0  0  0  0  0  0  0
    6.5380    0.4923    0.0000 H   0  0  0  0  0  0  0  0  0  0  0  0
    3.7320   -3.1277    0.0000 H   0  0  0  0  0  0  0  0  0  0  0  0
    2.8660   -2.0077    0.0000 H   0  0  0  0  0  0  0  0  0  0  0  0
    4.8059   -0.5077    0.0000 H   0  0  0  0  0  0  0  0  0  0  0  0
    3.4030   -0.6977    0.0000 H   0  0  0  0  0  0  0  0  0  0  0  0
    3.7320   -4.1277    0.0000 H   0  0  0  0  0  0  0  0  0  0  0  0
    4.8890    0.1823    0.0000 H   0  0  0  0  0  0  0  0  0  0  0  0
    4.2690    0.8023    0.0000 H   0  0  0  0  0  0  0  0  0  0  0  0
    3.6490    0.1823    0.0000 H   0  0  0  0  0  0  0  0  0  0  0  0
    2.0000   -2.5077    0.0000 H   0  0  0  0  0  0  0  0  0  0  0  0
    2.5369   -0.1977    0.0000 H   0  0  0  0  0  0  0  0  0  0  0  0
 41  1  1  1  0  0  0
 56  1  1  6  0  0  0
  2 53  1  0  0  0  0
 58  2  1  6  0  0  0
  3 53  2  0  0  0  0
  4 56  1  0  0  0  0
  4 60  1  0  0  0  0
 57  5  1  1  0  0  0
 66  5  1  6  0  0  0
  6 58  1  0  0  0  0
  6 64  1  0  0  0  0
 59  7  1  6  0  0  0
  7143  1  0  0  0  0
 61  8  1  6  0  0  0
  8144  1  0  0  0  0
 62  9  1  1  0  0  0
  9145  1  0  0  0  0
 63 10  1  6  0  0  0
 10149  1  0  0  0  0
 11 66  1  0  0  0  0
 11 70  1  0  0  0  0
 65 12  1  1  0  0  0
 12151  1  0  0  0  0
 13 68  1  0  0  0  0
 73 13  1  1  0  0  0
 67 14  1  1  0  0  0
 14154  1  0  0  0  0
 69 15  1  1  0  0  0
 15159  1  0  0  0  0
 71 16  1  6  0  0  0
 16160  1  0  0  0  0
 17 73  1  0  0  0  0
 17 76  1  0  0  0  0
 74 18  1  6  0  0  0
 18165  1  0  0  0  0
 75 19  1  1  0  0  0
 19168  1  0  0  0  0
 77 20  1  6  0  0  0
 79 20  1  1  0  0  0
 21 78  1  0  0  0  0
 21170  1  0  0  0  0
 22 79  1  0  0  0  0
 22 82  1  0  0  0  0
 80 23  1  6  0  0  0
 23175  1  0  0  0  0
 81 24  1  6  0  0  0
 24179  1  0  0  0  0
 83 25  1  1  0  0  0
 25180  1  0  0  0  0
 26 27  1  0  0  0  0
 26 29  1  0  0  0  0
 26 31  1  0  0  0  0
 26 40  1  1  0  0  0
 27 28  1  0  0  0  0
 27 36  1  0  0  0  0
 27 85  1  6  0  0  0
 28 30  1  0  0  0  0
 28 37  1  0  0  0  0
 28 43  1  1  0  0  0
 29 34  1  0  0  0  0
 29 38  1  0  0  0  0
 29 46  1  6  0  0  0
 30 32  1  0  0  0  0
 30 33  1  0  0  0  0
 30 86  1  6  0  0  0
 31 33  1  0  0  0  0
 31 87  1  0  0  0  0
 31 88  1  0  0  0  0
 32 41  1  0  0  0  0
 32 50  1  0  0  0  0
 32 51  1  0  0  0  0
 33 89  1  0  0  0  0
 33 90  1  0  0  0  0
 34 35  1  0  0  0  0
 34 44  2  0  0  0  0
 35 39  1  0  0  0  0
 35 47  1  0  0  0  0
 35 91  1  1  0  0  0
 36 44  1  0  0  0  0
 36 92  1  0  0  0  0
 36 93  1  0  0  0  0
 37 45  1  0  0  0  0
 37 94  1  0  0  0  0
 37 95  1  0  0  0  0
 38 42  1  0  0  0  0
 38 96  1  0  0  0  0
 38 97  1  0  0  0  0
 39 42  1  0  0  0  0
 39 48  1  0  0  0  0
 39 53  1  1  0  0  0
 40 98  1  0  0  0  0
 40 99  1  0  0  0  0
 40100  1  0  0  0  0
 41 45  1  0  0  0  0
 41101  1  0  0  0  0
 42102  1  0  0  0  0
 42103  1  0  0  0  0
 43104  1  0  0  0  0
 43105  1  0  0  0  0
 43106  1  0  0  0  0
 44107  1  0  0  0  0
 45108  1  0  0  0  0
 45109  1  0  0  0  0
 46110  1  0  0  0  0
 46111  1  0  0  0  0
 46112  1  0  0  0  0
 47 49  1  0  0  0  0
 47113  1  0  0  0  0
 47114  1  0  0  0  0
 48 52  1  0  0  0  0
 48115  1  0  0  0  0
 48116  1  0  0  0  0
 49 52  1  0  0  0  0
 49 54  1  0  0  0  0
 49 55  1  0  0  0  0
 50117  1  0  0  0  0
 50118  1  0  0  0  0
 50119  1  0  0  0  0
 51120  1  0  0  0  0
 51121  1  0  0  0  0
 51122  1  0  0  0  0
 52123  1  0  0  0  0
 52124  1  0  0  0  0
 54125  1  0  0  0  0
 54126  1  0  0  0  0
 54127  1  0  0  0  0
 55128  1  0  0  0  0
 55129  1  0  0  0  0
 55130  1  0  0  0  0
 56 57  1  0  0  0  0
 56131  1  0  0  0  0
 57 59  1  0  0  0  0
 57132  1  0  0  0  0
 58 62  1  0  0  0  0
 58133  1  0  0  0  0
 59 61  1  0  0  0  0
 59134  1  0  0  0  0
 60 61  1  0  0  0  0
 60135  1  0  0  0  0
 60136  1  0  0  0  0
 61137  1  0  0  0  0
 62 63  1  0  0  0  0
 62138  1  0  0  0  0
 63 65  1  0  0  0  0
 63139  1  0  0  0  0
 64 65  1  0  0  0  0
 64 68  1  6  0  0  0
 64140  1  0  0  0  0
 65141  1  0  0  0  0
 66 67  1  0  0  0  0
 66142  1  0  0  0  0
 67 69  1  0  0  0  0
 67146  1  0  0  0  0
 68147  1  0  0  0  0
 68148  1  0  0  0  0
 69 71  1  0  0  0  0
 69150  1  0  0  0  0
 70 71  1  0  0  0  0
 70 72  1  1  0  0  0
 70152  1  0  0  0  0
 71153  1  0  0  0  0
 72155  1  0  0  0  0
 72156  1  0  0  0  0
 72157  1  0  0  0  0
 73 74  1  0  0  0  0
 73158  1  0  0  0  0
 74 75  1  0  0  0  0
 74161  1  0  0  0  0
 75 77  1  0  0  0  0
 75162  1  0  0  0  0
 76 77  1  0  0  0  0
 76 78  1  1  0  0  0
 76163  1  0  0  0  0
 77164  1  0  0  0  0
 78166  1  0  0  0  0
 78167  1  0  0  0  0
 79 80  1  0  0  0  0
 79169  1  0  0  0  0
 80 81  1  0  0  0  0
 80171  1  0  0  0  0
 81 83  1  0  0  0  0
 81172  1  0  0  0  0
 82 83  1  0  0  0  0
 82 84  1  6  0  0  0
 82173  1  0  0  0  0
 83174  1  0  0  0  0
 84176  1  0  0  0  0
 84177  1  0  0  0  0
 84178  1  0  0  0  0
M  END
> <PUBCHEM_COMPOUND_CID>
21626480

> <PUBCHEM_COMPOUND_CANONICALIZED>
1

> <PUBCHEM_CACTVS_COMPLEXITY>
2350

> <PUBCHEM_CACTVS_HBOND_ACCEPTOR>
25

> <PUBCHEM_CACTVS_HBOND_DONOR>
14

> <PUBCHEM_CACTVS_ROTATABLE_BOND>
13

> <PUBCHEM_CACTVS_SUBSKEYS>
AAADcfB8PgAAAAAAAAAAAAAAAAAAAAAAAAA0aNGiQAAAAADAAAAAGgAACAAADxSwgAMCCAAABgCIAiDSCAAAAAAgAAAACAEAAAgREBIAAQAiQAAFgAAPAAPI6PyPgAAAAAAAAADAAAYAADAAAAAAAAAAAA==

> <PUBCHEM_IUPAC_OPENEYE_NAME>
[(2S,3R,4S,5S,6R)-6-[[(2R,3R,4R,5S,6R)-3,4-dihydroxy-6-(hydroxymethyl)-5-[(2S,3R,4R,5R,6S)-3,4,5-trihydroxy-6-methyl-tetrahydropyran-2-yl]oxy-tetrahydropyran-2-yl]oxymethyl]-3,4,5-trihydroxy-tetrahydropyran-2-yl] (4aS,6aR,6aS,6bR,8aR,10S,12aR,14bS)-10-[(2S,3R,4S,5S)-4,5-dihydroxy-3-[(2S,3R,4R,5R,6S)-3,4,5-trihydroxy-6-methyl-tetrahydropyran-2-yl]oxy-tetrahydropyran-2-yl]oxy-2,2,6a,6b,9,9,12a-heptamethyl-1,3,4,5,6,6a,7,8,8a,10,11,12,13,14b-tetradecahydropicene-4a-carboxylate

> <PUBCHEM_IUPAC_CAS_NAME>
(4aS,6aR,6aS,6bR,8aR,10S,12aR,14bS)-10-[[(2S,3R,4S,5S)-4,5-dihydroxy-3-[[(2S,3R,4R,5R,6S)-3,4,5-trihydroxy-6-methyl-2-oxanyl]oxy]-2-oxanyl]oxy]-2,2,6a,6b,9,9,12a-heptamethyl-1,3,4,5,6,6a,7,8,8a,10,11,12,13,14b-tetradecahydropicene-4a-carboxylic acid [(2S,3R,4S,5S,6R)-6-[[(2R,3R,4R,5S,6R)-3,4-dihydroxy-6-(hydroxymethyl)-5-[[(2S,3R,4R,5R,6S)-3,4,5-trihydroxy-6-methyl-2-oxanyl]oxy]-2-oxanyl]oxymethyl]-3,4,5-trihydroxy-2-oxanyl] ester

> <PUBCHEM_IUPAC_NAME_MARKUP>
[(2<I>S</I>,3<I>R</I>,4<I>S</I>,5<I>S</I>,6<I>R</I>)-6-[[(2<I>R</I>,3<I>R</I>,4<I>R</I>,5<I>S</I>,6<I>R</I>)-3,4-dihydroxy-6-(hydroxymethyl)-5-[(2<I>S</I>,3<I>R</I>,4<I>R</I>,5<I>R</I>,6<I>S</I>)-3,4,5-trihydroxy-6-methyloxan-2-yl]oxyoxan-2-yl]oxymethyl]-3,4,5-trihydroxyoxan-2-yl] (4<I>a</I><I>S</I>,6<I>a</I><I>R</I>,6<I>a</I><I>S</I>,6<I>b</I><I>R</I>,8<I>a</I><I>R</I>,10<I>S</I>,12<I>a</I><I>R</I>,14<I>b</I><I>S</I>)-10-[(2<I>S</I>,3<I>R</I>,4<I>S</I>,5<I>S</I>)-4,5-dihydroxy-3-[(2<I>S</I>,3<I>R</I>,4<I>R</I>,5<I>R</I>,6<I>S</I>)-3,4,5-trihydroxy-6-methyloxan-2-yl]oxyoxan-2-yl]oxy-2,2,6<I>a</I>,6<I>b</I>,9,9,12<I>a</I>-heptamethyl-1,3,4,5,6,6<I>a</I>,7,8,8<I>a</I>,10,11,12,13,14<I>b</I>-tetradecahydropicene-4<I>a</I>-carboxylate

> <PUBCHEM_IUPAC_NAME>
[(2S,3R,4S,5S,6R)-6-[[(2R,3R,4R,5S,6R)-3,4-dihydroxy-6-(hydroxymethyl)-5-[(2S,3R,4R,5R,6S)-3,4,5-trihydroxy-6-methyloxan-2-yl]oxyoxan-2-yl]oxymethyl]-3,4,5-trihydroxyoxan-2-yl] (4aS,6aR,6aS,6bR,8aR,10S,12aR,14bS)-10-[(2S,3R,4S,5S)-4,5-dihydroxy-3-[(2S,3R,4R,5R,6S)-3,4,5-trihydroxy-6-methyloxan-2-yl]oxyoxan-2-yl]oxy-2,2,6a,6b,9,9,12a-heptamethyl-1,3,4,5,6,6a,7,8,8a,10,11,12,13,14b-tetradecahydropicene-4a-carboxylate

> <PUBCHEM_IUPAC_SYSTEMATIC_NAME>
[(2S,3R,4S,5S,6R)-6-[[(2R,3R,4R,5S,6R)-6-(hydroxymethyl)-5-[(2S,3R,4R,5R,6S)-6-methyl-3,4,5-tris(oxidanyl)oxan-2-yl]oxy-3,4-bis(oxidanyl)oxan-2-yl]oxymethyl]-3,4,5-tris(oxidanyl)oxan-2-yl] (4aS,6aR,6aS,6bR,8aR,10S,12aR,14bS)-2,2,6a,6b,9,9,12a-heptamethyl-10-[(2S,3R,4S,5S)-3-[(2S,3R,4R,5R,6S)-6-methyl-3,4,5-tris(oxidanyl)oxan-2-yl]oxy-4,5-bis(oxidanyl)oxan-2-yl]oxy-1,3,4,5,6,6a,7,8,8a,10,11,12,13,14b-tetradecahydropicene-4a-carboxylate

> <PUBCHEM_IUPAC_TRADITIONAL_NAME>
(4aS,6aR,6aS,6bR,8aR,10S,12aR,14bS)-10-[(2S,3R,4S,5S)-4,5-dihydroxy-3-[(2S,3R,4R,5R,6S)-3,4,5-trihydroxy-6-methyl-tetrahydropyran-2-yl]oxy-tetrahydropyran-2-yl]oxy-2,2,6a,6b,9,9,12a-heptamethyl-1,3,4,5,6,6a,7,8,8a,10,11,12,13,14b-tetradecahydropicene-4a-carboxylic acid [(2S,3R,4S,5S,6R)-6-[[(2R,3R,4R,5S,6R)-3,4-dihydroxy-6-methylol-5-[(2S,3R,4R,5R,6S)-3,4,5-trihydroxy-6-methyl-tetrahydropyran-2-yl]oxy-tetrahydropyran-2-yl]oxymethyl]-3,4,5-trihydroxy-tetrahydropyran-2-yl] ester

> <PUBCHEM_IUPAC_INCHI>
InChI=1S/C59H96O25/c1-24-34(62)38(66)42(70)49(77-24)82-46-29(21-60)79-48(45(73)41(46)69)76-23-30-37(65)40(68)44(72)51(80-30)84-53(74)59-18-16-54(3,4)20-27(59)26-10-11-32-56(7)14-13-33(55(5,6)31(56)12-15-58(32,9)57(26,8)17-19-59)81-52-47(36(64)28(61)22-75-52)83-50-43(71)39(67)35(63)25(2)78-50/h10,24-25,27-52,60-73H,11-23H2,1-9H3/t24-,25-,27-,28-,29+,30+,31-,32+,33-,34-,35-,36-,37+,38+,39+,40-,41+,42+,43+,44+,45+,46+,47+,48+,49-,50-,51-,52-,56-,57+,58+,59-/m0/s1

> <PUBCHEM_IUPAC_INCHIKEY>
NVSLBOBPSCMMSO-BVLVEXITSA-N

> <PUBCHEM_XLOGP3_AA>
-0.7

> <PUBCHEM_EXACT_MASS>
1204.624069

> <PUBCHEM_MOLECULAR_FORMULA>
C59H96O25

> <PUBCHEM_MOLECULAR_WEIGHT>
1205.4

> <PUBCHEM_OPENEYE_CAN_SMILES>
CC1C(C(C(C(O1)OC2C(OC(C(C2O)O)OCC3C(C(C(C(O3)OC(=O)C45CCC(CC4C6=CCC7C8(CCC(C(C8CCC7(C6(CC5)C)C)(C)C)OC9C(C(C(CO9)O)O)OC1C(C(C(C(O1)C)O)O)O)C)(C)C)O)O)O)CO)O)O)O

> <PUBCHEM_OPENEYE_ISO_SMILES>
C[C@H]1[C@@H]([C@H]([C@H]([C@@H](O1)O[C@@H]2[C@H](O[C@H]([C@@H]([C@H]2O)O)OC[C@@H]3[C@H]([C@@H]([C@H]([C@@H](O3)OC(=O)[C@@]45CC[C@@]6(C(=CC[C@H]7[C@]6(CC[C@@H]8[C@@]7(CC[C@@H](C8(C)C)O[C@H]9[C@@H]([C@H]([C@H](CO9)O)O)O[C@H]1[C@@H]([C@@H]([C@H]([C@@H](O1)C)O)O)O)C)C)[C@@H]4CC(CC5)(C)C)C)O)O)O)CO)O)O)O

> <PUBCHEM_CACTVS_TPSA>
393

> <PUBCHEM_MONOISOTOPIC_WEIGHT>
1204.624069

> <PUBCHEM_TOTAL_CHARGE>
0

> <PUBCHEM_HEAVY_ATOM_COUNT>
84

> <PUBCHEM_ATOM_DEF_STEREO_COUNT>
32

> <PUBCHEM_ATOM_UDEF_STEREO_COUNT>
0

> <PUBCHEM_BOND_DEF_STEREO_COUNT>
0

> <PUBCHEM_BOND_UDEF_STEREO_COUNT>
0

> <PUBCHEM_ISOTOPIC_ATOM_COUNT>
0

> <PUBCHEM_COMPONENT_COUNT>
1

> <PUBCHEM_CACTVS_TAUTO_COUNT>
-1

> <PUBCHEM_COORDINATE_TYPE>
1
5
255

> <PUBCHEM_BONDANNOTATIONS>
41  1  5
56  1  6
63  10  6
65  12  5
73  13  5
67  14  5
69  15  5
71  16  6
74  18  6
75  19  5
58  2  6
77  20  6
79  20  5
80  23  6
81  24  6
83  25  5
26  40  5
27  85  6
28  43  5
29  46  6
30  86  6
35  91  5
39  53  5
57  5  5
66  5  6
64  68  6
59  7  6
70  72  5
76  78  5
61  8  6
82  84  6
62  9  5

$$$$
