10724471
  -OEChem-09022012272D

152153  0     1  0  0  0  0  0999 V2000
    7.7331   -4.6550    0.0000 O   0  0  0  0  0  0  0  0  0  0  0  0
    5.1350   -2.1550    0.0000 O   0  0  0  0  0  0  0  0  0  0  0  0
    6.0010   -3.6550    0.0000 O   0  0  0  0  0  0  0  0  0  0  0  0
    9.4651   -4.6550    0.0000 O   0  0  0  0  0  0  0  0  0  0  0  0
    6.0010   -6.6550    0.0000 O   0  0  0  0  0  0  0  0  0  0  0  0
    7.7331   -7.6550    0.0000 O   0  0  0  0  0  0  0  0  0  0  0  0
    9.4651   -6.6550    0.0000 O   0  0  0  0  0  0  0  0  0  0  0  0
    4.2690   -4.6550    0.0000 O   0  0  0  0  0  0  0  0  0  0  0  0
    2.5369   -3.6550    0.0000 O   0  0  0  0  0  0  0  0  0  0  0  0
    2.5369   -1.6550    0.0000 O   0  0  0  0  0  0  0  0  0  0  0  0
    5.1350   -0.1550    0.0000 O   0  0  0  0  0  0  0  0  0  0  0  0
   10.3312   -2.1550    0.0000 O   0  0  0  0  0  0  0  0  0  0  0  0
   12.0632   -3.1550    0.0000 O   0  0  0  0  0  0  0  0  0  0  0  0
   12.0632   -2.1550    0.0000 O   0  0  0  0  0  0  0  0  0  0  0  0
   12.9292   -4.6550    0.0000 O   0  0  0  0  0  0  0  0  0  0  0  0
    6.8671   -5.1550    0.0000 C   0  0  1  0  0  0  0  0  0  0  0  0
    6.8671   -6.1550    0.0000 C   0  0  1  0  0  0  0  0  0  0  0  0
    7.7331   -6.6550    0.0000 C   0  0  1  0  0  0  0  0  0  0  0  0
    8.5991   -6.1550    0.0000 C   0  0  2  0  0  0  0  0  0  0  0  0
    4.2690   -3.6550    0.0000 C   0  0  1  0  0  0  0  0  0  0  0  0
    5.1350   -3.1550    0.0000 C   0  0  2  0  0  0  0  0  0  0  0  0
    3.4030   -3.1550    0.0000 C   0  0  2  0  0  0  0  0  0  0  0  0
    3.4030   -2.1550    0.0000 C   0  0  2  0  0  0  0  0  0  0  0  0
    8.5991   -5.1550    0.0000 C   0  0  1  0  0  0  0  0  0  0  0  0
    4.2690   -1.6550    0.0000 C   0  0  1  0  0  0  0  0  0  0  0  0
    6.0010   -4.6550    0.0000 C   0  0  0  0  0  0  0  0  0  0  0  0
    4.2690   -0.6550    0.0000 C   0  0  0  0  0  0  0  0  0  0  0  0
    9.4651   -3.6550    0.0000 C   0  0  0  0  0  0  0  0  0  0  0  0
   10.3312   -3.1550    0.0000 C   0  0  1  0  0  0  0  0  0  0  0  0
   11.1972   -3.6550    0.0000 C   0  0  0  0  0  0  0  0  0  0  0  0
   18.9914   -3.1550    0.0000 C   0  0  0  0  0  0  0  0  0  0  0  0
   18.1254   -3.6550    0.0000 C   0  0  0  0  0  0  0  0  0  0  0  0
   19.8574   -3.6550    0.0000 C   0  0  0  0  0  0  0  0  0  0  0  0
   17.2594   -3.1550    0.0000 C   0  0  0  0  0  0  0  0  0  0  0  0
   16.3933   -3.6550    0.0000 C   0  0  0  0  0  0  0  0  0  0  0  0
   20.7235   -3.1550    0.0000 C   0  0  0  0  0  0  0  0  0  0  0  0
   15.5273   -3.1550    0.0000 C   0  0  0  0  0  0  0  0  0  0  0  0
   11.1972   -1.6550    0.0000 C   0  0  0  0  0  0  0  0  0  0  0  0
   21.5895   -3.6550    0.0000 C   0  0  0  0  0  0  0  0  0  0  0  0
   14.6613   -3.6550    0.0000 C   0  0  0  0  0  0  0  0  0  0  0  0
   22.4555   -3.1550    0.0000 C   0  0  0  0  0  0  0  0  0  0  0  0
   11.1972   -0.6550    0.0000 C   0  0  0  0  0  0  0  0  0  0  0  0
   13.7953   -3.1550    0.0000 C   0  0  0  0  0  0  0  0  0  0  0  0
   12.9292   -3.6550    0.0000 C   0  0  0  0  0  0  0  0  0  0  0  0
   23.3215   -3.6550    0.0000 C   0  0  0  0  0  0  0  0  0  0  0  0
   12.0632   -0.1550    0.0000 C   0  0  0  0  0  0  0  0  0  0  0  0
   12.0632    0.8450    0.0000 C   0  0  0  0  0  0  0  0  0  0  0  0
   24.1876   -3.1550    0.0000 C   0  0  0  0  0  0  0  0  0  0  0  0
   12.9292    1.3450    0.0000 C   0  0  0  0  0  0  0  0  0  0  0  0
   12.9292    2.3450    0.0000 C   0  0  0  0  0  0  0  0  0  0  0  0
   25.0536   -3.6550    0.0000 C   0  0  0  0  0  0  0  0  0  0  0  0
   13.7953    2.8450    0.0000 C   0  0  0  0  0  0  0  0  0  0  0  0
   25.9196   -3.1550    0.0000 C   0  0  0  0  0  0  0  0  0  0  0  0
   13.7953    3.8450    0.0000 C   0  0  0  0  0  0  0  0  0  0  0  0
   14.6613    4.3450    0.0000 C   0  0  0  0  0  0  0  0  0  0  0  0
   14.6613    5.3450    0.0000 C   0  0  0  0  0  0  0  0  0  0  0  0
   13.7953    5.8450    0.0000 C   0  0  0  0  0  0  0  0  0  0  0  0
   13.7953    6.8450    0.0000 C   0  0  0  0  0  0  0  0  0  0  0  0
   12.0632    6.8450    0.0000 C   0  0  0  0  0  0  0  0  0  0  0  0
   11.1972    7.3450    0.0000 C   0  0  0  0  0  0  0  0  0  0  0  0
   12.9292    7.3450    0.0000 C   0  0  0  0  0  0  0  0  0  0  0  0
   10.3312    6.8450    0.0000 C   0  0  0  0  0  0  0  0  0  0  0  0
    9.4651    7.3450    0.0000 C   0  0  0  0  0  0  0  0  0  0  0  0
    8.5991    6.8450    0.0000 C   0  0  0  0  0  0  0  0  0  0  0  0
    6.8671   -4.5350    0.0000 H   0  0  0  0  0  0  0  0  0  0  0  0
    6.8671   -6.7750    0.0000 H   0  0  0  0  0  0  0  0  0  0  0  0
    7.1962   -6.9650    0.0000 H   0  0  0  0  0  0  0  0  0  0  0  0
    8.5991   -6.7750    0.0000 H   0  0  0  0  0  0  0  0  0  0  0  0
    3.7320   -3.9650    0.0000 H   0  0  0  0  0  0  0  0  0  0  0  0
    5.1350   -3.7750    0.0000 H   0  0  0  0  0  0  0  0  0  0  0  0
    2.8660   -2.8450    0.0000 H   0  0  0  0  0  0  0  0  0  0  0  0
    3.4030   -1.5350    0.0000 H   0  0  0  0  0  0  0  0  0  0  0  0
    8.5991   -4.5350    0.0000 H   0  0  0  0  0  0  0  0  0  0  0  0
    4.8059   -1.3450    0.0000 H   0  0  0  0  0  0  0  0  0  0  0  0
    5.3905   -4.5473    0.0000 H   0  0  0  0  0  0  0  0  0  0  0  0
    5.7890   -5.2376    0.0000 H   0  0  0  0  0  0  0  0  0  0  0  0
    4.0569   -0.0724    0.0000 H   0  0  0  0  0  0  0  0  0  0  0  0
    3.6584   -0.7627    0.0000 H   0  0  0  0  0  0  0  0  0  0  0  0
    5.4641   -6.3450    0.0000 H   0  0  0  0  0  0  0  0  0  0  0  0
    7.1962   -7.9650    0.0000 H   0  0  0  0  0  0  0  0  0  0  0  0
   10.0021   -6.3450    0.0000 H   0  0  0  0  0  0  0  0  0  0  0  0
    3.7320   -4.9650    0.0000 H   0  0  0  0  0  0  0  0  0  0  0  0
    2.0000   -3.3450    0.0000 H   0  0  0  0  0  0  0  0  0  0  0  0
    2.5369   -1.0350    0.0000 H   0  0  0  0  0  0  0  0  0  0  0  0
    9.2531   -3.0724    0.0000 H   0  0  0  0  0  0  0  0  0  0  0  0
    8.8546   -3.7627    0.0000 H   0  0  0  0  0  0  0  0  0  0  0  0
    9.7942   -2.8450    0.0000 H   0  0  0  0  0  0  0  0  0  0  0  0
    5.1350    0.4650    0.0000 H   0  0  0  0  0  0  0  0  0  0  0  0
   10.7987   -4.1300    0.0000 H   0  0  0  0  0  0  0  0  0  0  0  0
   11.5957   -4.1300    0.0000 H   0  0  0  0  0  0  0  0  0  0  0  0
   19.3899   -2.6800    0.0000 H   0  0  0  0  0  0  0  0  0  0  0  0
   18.5929   -2.6800    0.0000 H   0  0  0  0  0  0  0  0  0  0  0  0
   17.7269   -4.1300    0.0000 H   0  0  0  0  0  0  0  0  0  0  0  0
   18.5239   -4.1300    0.0000 H   0  0  0  0  0  0  0  0  0  0  0  0
   19.4589   -4.1300    0.0000 H   0  0  0  0  0  0  0  0  0  0  0  0
   20.2560   -4.1300    0.0000 H   0  0  0  0  0  0  0  0  0  0  0  0
   17.6579   -2.6800    0.0000 H   0  0  0  0  0  0  0  0  0  0  0  0
   16.8608   -2.6800    0.0000 H   0  0  0  0  0  0  0  0  0  0  0  0
   21.1220   -2.6800    0.0000 H   0  0  0  0  0  0  0  0  0  0  0  0
   20.3249   -2.6800    0.0000 H   0  0  0  0  0  0  0  0  0  0  0  0
   15.9948   -4.1300    0.0000 H   0  0  0  0  0  0  0  0  0  0  0  0
   16.7919   -4.1300    0.0000 H   0  0  0  0  0  0  0  0  0  0  0  0
   15.9258   -2.6800    0.0000 H   0  0  0  0  0  0  0  0  0  0  0  0
   15.1288   -2.6800    0.0000 H   0  0  0  0  0  0  0  0  0  0  0  0
   21.1910   -4.1300    0.0000 H   0  0  0  0  0  0  0  0  0  0  0  0
   21.9880   -4.1300    0.0000 H   0  0  0  0  0  0  0  0  0  0  0  0
   14.2628   -4.1300    0.0000 H   0  0  0  0  0  0  0  0  0  0  0  0
   15.0598   -4.1300    0.0000 H   0  0  0  0  0  0  0  0  0  0  0  0
   22.8540   -2.6800    0.0000 H   0  0  0  0  0  0  0  0  0  0  0  0
   22.0570   -2.6800    0.0000 H   0  0  0  0  0  0  0  0  0  0  0  0
   14.1938   -2.6800    0.0000 H   0  0  0  0  0  0  0  0  0  0  0  0
   13.3967   -2.6800    0.0000 H   0  0  0  0  0  0  0  0  0  0  0  0
   10.9851   -0.0724    0.0000 H   0  0  0  0  0  0  0  0  0  0  0  0
   10.5866   -0.7627    0.0000 H   0  0  0  0  0  0  0  0  0  0  0  0
   22.9230   -4.1300    0.0000 H   0  0  0  0  0  0  0  0  0  0  0  0
   23.7201   -4.1300    0.0000 H   0  0  0  0  0  0  0  0  0  0  0  0
   12.2753   -0.7376    0.0000 H   0  0  0  0  0  0  0  0  0  0  0  0
   12.6738   -0.0473    0.0000 H   0  0  0  0  0  0  0  0  0  0  0  0
   11.8512    1.4276    0.0000 H   0  0  0  0  0  0  0  0  0  0  0  0
   11.4526    0.7373    0.0000 H   0  0  0  0  0  0  0  0  0  0  0  0
   24.5861   -2.6800    0.0000 H   0  0  0  0  0  0  0  0  0  0  0  0
   23.7890   -2.6800    0.0000 H   0  0  0  0  0  0  0  0  0  0  0  0
   13.1413    0.7624    0.0000 H   0  0  0  0  0  0  0  0  0  0  0  0
   13.5398    1.4527    0.0000 H   0  0  0  0  0  0  0  0  0  0  0  0
   12.7172    2.9276    0.0000 H   0  0  0  0  0  0  0  0  0  0  0  0
   12.3187    2.2373    0.0000 H   0  0  0  0  0  0  0  0  0  0  0  0
   24.6551   -4.1300    0.0000 H   0  0  0  0  0  0  0  0  0  0  0  0
   25.4521   -4.1300    0.0000 H   0  0  0  0  0  0  0  0  0  0  0  0
   14.0073    2.2624    0.0000 H   0  0  0  0  0  0  0  0  0  0  0  0
   14.4058    2.9527    0.0000 H   0  0  0  0  0  0  0  0  0  0  0  0
   26.2296   -3.6919    0.0000 H   0  0  0  0  0  0  0  0  0  0  0  0
   26.4566   -2.8450    0.0000 H   0  0  0  0  0  0  0  0  0  0  0  0
   25.6096   -2.6181    0.0000 H   0  0  0  0  0  0  0  0  0  0  0  0
   13.5832    4.4276    0.0000 H   0  0  0  0  0  0  0  0  0  0  0  0
   13.1847    3.7373    0.0000 H   0  0  0  0  0  0  0  0  0  0  0  0
   15.1982    4.0350    0.0000 H   0  0  0  0  0  0  0  0  0  0  0  0
   15.1982    5.6550    0.0000 H   0  0  0  0  0  0  0  0  0  0  0  0
   13.1847    5.9527    0.0000 H   0  0  0  0  0  0  0  0  0  0  0  0
   13.5832    5.2624    0.0000 H   0  0  0  0  0  0  0  0  0  0  0  0
   14.3322    7.1550    0.0000 H   0  0  0  0  0  0  0  0  0  0  0  0
   11.6647    6.3700    0.0000 H   0  0  0  0  0  0  0  0  0  0  0  0
   12.4617    6.3700    0.0000 H   0  0  0  0  0  0  0  0  0  0  0  0
   11.5957    7.8200    0.0000 H   0  0  0  0  0  0  0  0  0  0  0  0
   10.7987    7.8200    0.0000 H   0  0  0  0  0  0  0  0  0  0  0  0
   12.9292    7.9650    0.0000 H   0  0  0  0  0  0  0  0  0  0  0  0
    9.9326    6.3700    0.0000 H   0  0  0  0  0  0  0  0  0  0  0  0
   10.7297    6.3700    0.0000 H   0  0  0  0  0  0  0  0  0  0  0  0
    9.8637    7.8200    0.0000 H   0  0  0  0  0  0  0  0  0  0  0  0
    9.0666    7.8200    0.0000 H   0  0  0  0  0  0  0  0  0  0  0  0
    8.2891    7.3819    0.0000 H   0  0  0  0  0  0  0  0  0  0  0  0
    8.0622    6.5350    0.0000 H   0  0  0  0  0  0  0  0  0  0  0  0
    8.9091    6.3081    0.0000 H   0  0  0  0  0  0  0  0  0  0  0  0
  1 16  1  0  0  0  0
  1 24  1  0  0  0  0
  2 21  1  0  0  0  0
  2 25  1  0  0  0  0
 21  3  1  6  0  0  0
  3 26  1  0  0  0  0
 24  4  1  1  0  0  0
  4 28  1  0  0  0  0
 17  5  1  1  0  0  0
  5 79  1  0  0  0  0
 18  6  1  1  0  0  0
  6 80  1  0  0  0  0
 19  7  1  6  0  0  0
  7 81  1  0  0  0  0
 20  8  1  6  0  0  0
  8 82  1  0  0  0  0
 22  9  1  1  0  0  0
  9 83  1  0  0  0  0
 23 10  1  1  0  0  0
 10 84  1  0  0  0  0
 11 27  1  0  0  0  0
 11 88  1  0  0  0  0
 29 12  1  6  0  0  0
 12 38  1  0  0  0  0
 13 30  1  0  0  0  0
 13 44  1  0  0  0  0
 14 38  2  0  0  0  0
 15 44  2  0  0  0  0
 16 17  1  0  0  0  0
 16 26  1  1  0  0  0
 16 65  1  0  0  0  0
 17 18  1  0  0  0  0
 17 66  1  0  0  0  0
 18 19  1  0  0  0  0
 18 67  1  0  0  0  0
 19 24  1  0  0  0  0
 19 68  1  0  0  0  0
 20 21  1  0  0  0  0
 20 22  1  0  0  0  0
 20 69  1  0  0  0  0
 21 70  1  0  0  0  0
 22 23  1  0  0  0  0
 22 71  1  0  0  0  0
 23 25  1  0  0  0  0
 23 72  1  0  0  0  0
 24 73  1  0  0  0  0
 25 27  1  1  0  0  0
 25 74  1  0  0  0  0
 26 75  1  0  0  0  0
 26 76  1  0  0  0  0
 27 77  1  0  0  0  0
 27 78  1  0  0  0  0
 28 29  1  0  0  0  0
 28 85  1  0  0  0  0
 28 86  1  0  0  0  0
 29 30  1  0  0  0  0
 29 87  1  0  0  0  0
 30 89  1  0  0  0  0
 30 90  1  0  0  0  0
 31 32  1  0  0  0  0
 31 33  1  0  0  0  0
 31 91  1  0  0  0  0
 31 92  1  0  0  0  0
 32 34  1  0  0  0  0
 32 93  1  0  0  0  0
 32 94  1  0  0  0  0
 33 36  1  0  0  0  0
 33 95  1  0  0  0  0
 33 96  1  0  0  0  0
 34 35  1  0  0  0  0
 34 97  1  0  0  0  0
 34 98  1  0  0  0  0
 35 37  1  0  0  0  0
 35101  1  0  0  0  0
 35102  1  0  0  0  0
 36 39  1  0  0  0  0
 36 99  1  0  0  0  0
 36100  1  0  0  0  0
 37 40  1  0  0  0  0
 37103  1  0  0  0  0
 37104  1  0  0  0  0
 38 42  1  0  0  0  0
 39 41  1  0  0  0  0
 39105  1  0  0  0  0
 39106  1  0  0  0  0
 40 43  1  0  0  0  0
 40107  1  0  0  0  0
 40108  1  0  0  0  0
 41 45  1  0  0  0  0
 41109  1  0  0  0  0
 41110  1  0  0  0  0
 42 46  1  0  0  0  0
 42113  1  0  0  0  0
 42114  1  0  0  0  0
 43 44  1  0  0  0  0
 43111  1  0  0  0  0
 43112  1  0  0  0  0
 45 48  1  0  0  0  0
 45115  1  0  0  0  0
 45116  1  0  0  0  0
 46 47  1  0  0  0  0
 46117  1  0  0  0  0
 46118  1  0  0  0  0
 47 49  1  0  0  0  0
 47119  1  0  0  0  0
 47120  1  0  0  0  0
 48 51  1  0  0  0  0
 48121  1  0  0  0  0
 48122  1  0  0  0  0
 49 50  1  0  0  0  0
 49123  1  0  0  0  0
 49124  1  0  0  0  0
 50 52  1  0  0  0  0
 50125  1  0  0  0  0
 50126  1  0  0  0  0
 51 53  1  0  0  0  0
 51127  1  0  0  0  0
 51128  1  0  0  0  0
 52 54  1  0  0  0  0
 52129  1  0  0  0  0
 52130  1  0  0  0  0
 53131  1  0  0  0  0
 53132  1  0  0  0  0
 53133  1  0  0  0  0
 54 55  1  0  0  0  0
 54134  1  0  0  0  0
 54135  1  0  0  0  0
 55 56  2  0  0  0  0
 55136  1  0  0  0  0
 56 57  1  0  0  0  0
 56137  1  0  0  0  0
 57 58  1  0  0  0  0
 57138  1  0  0  0  0
 57139  1  0  0  0  0
 58 61  2  0  0  0  0
 58140  1  0  0  0  0
 59 60  1  0  0  0  0
 59 61  1  0  0  0  0
 59141  1  0  0  0  0
 59142  1  0  0  0  0
 60 62  1  0  0  0  0
 60143  1  0  0  0  0
 60144  1  0  0  0  0
 61145  1  0  0  0  0
 62 63  1  0  0  0  0
 62146  1  0  0  0  0
 62147  1  0  0  0  0
 63 64  1  0  0  0  0
 63148  1  0  0  0  0
 63149  1  0  0  0  0
 64150  1  0  0  0  0
 64151  1  0  0  0  0
 64152  1  0  0  0  0
M  END
> <PUBCHEM_COMPOUND_CID>
10724471

> <PUBCHEM_COMPOUND_CANONICALIZED>
1

> <PUBCHEM_CACTVS_COMPLEXITY>
1220

> <PUBCHEM_CACTVS_HBOND_ACCEPTOR>
15

> <PUBCHEM_CACTVS_HBOND_DONOR>
7

> <PUBCHEM_CACTVS_ROTATABLE_BOND>
40

> <PUBCHEM_CACTVS_SUBSKEYS>
AAADcfB8PAAAAAAAAAAAAAAAAAAAAAAAAAAkSAAAAAAAAAAAAAAAGgAACAAACBSwgAMCCAAABgCIACDSCAAAAAAgAAAICAEAAAgREBIAAQAiQAAFgAAPAAPI6KyAAAAAAAAAAAAAAAAAAAAAAAAAAAAAAA==

> <PUBCHEM_IUPAC_OPENEYE_NAME>
[(1S)-1-(hexadecanoyloxymethyl)-2-[(2R,3R,4S,5R,6R)-3,4,5-trihydroxy-6-[[(2S,3R,4S,5R,6R)-3,4,5-trihydroxy-6-(hydroxymethyl)tetrahydropyran-2-yl]oxymethyl]tetrahydropyran-2-yl]oxy-ethyl] (9Z,12Z)-octadeca-9,12-dienoate

> <PUBCHEM_IUPAC_CAS_NAME>
(9Z,12Z)-octadeca-9,12-dienoic acid [(2S)-1-(1-oxohexadecoxy)-3-[[(2R,3R,4S,5R,6R)-3,4,5-trihydroxy-6-[[(2S,3R,4S,5R,6R)-3,4,5-trihydroxy-6-(hydroxymethyl)-2-oxanyl]oxymethyl]-2-oxanyl]oxy]propan-2-yl] ester

> <PUBCHEM_IUPAC_NAME_MARKUP>
[(2<I>S</I>)-1-hexadecanoyloxy-3-[(2<I>R</I>,3<I>R</I>,4<I>S</I>,5<I>R</I>,6<I>R</I>)-3,4,5-trihydroxy-6-[[(2<I>S</I>,3<I>R</I>,4<I>S</I>,5<I>R</I>,6<I>R</I>)-3,4,5-trihydroxy-6-(hydroxymethyl)oxan-2-yl]oxymethyl]oxan-2-yl]oxypropan-2-yl] (9<I>Z</I>,12<I>Z</I>)-octadeca-9,12-dienoate

> <PUBCHEM_IUPAC_NAME>
[(2S)-1-hexadecanoyloxy-3-[(2R,3R,4S,5R,6R)-3,4,5-trihydroxy-6-[[(2S,3R,4S,5R,6R)-3,4,5-trihydroxy-6-(hydroxymethyl)oxan-2-yl]oxymethyl]oxan-2-yl]oxypropan-2-yl] (9Z,12Z)-octadeca-9,12-dienoate

> <PUBCHEM_IUPAC_SYSTEMATIC_NAME>
[(2S)-1-hexadecanoyloxy-3-[(2R,3R,4S,5R,6R)-6-[[(2S,3R,4S,5R,6R)-6-(hydroxymethyl)-3,4,5-tris(oxidanyl)oxan-2-yl]oxymethyl]-3,4,5-tris(oxidanyl)oxan-2-yl]oxy-propan-2-yl] (9Z,12Z)-octadeca-9,12-dienoate

> <PUBCHEM_IUPAC_TRADITIONAL_NAME>
(9Z,12Z)-octadeca-9,12-dienoic acid [(1S)-1-(hexadecanoyloxymethyl)-2-[(2R,3R,4S,5R,6R)-3,4,5-trihydroxy-6-[[(2S,3R,4S,5R,6R)-3,4,5-trihydroxy-6-methylol-tetrahydropyran-2-yl]oxymethyl]tetrahydropyran-2-yl]oxy-ethyl] ester

> <PUBCHEM_IUPAC_INCHI>
InChI=1S/C49H88O15/c1-3-5-7-9-11-13-15-17-18-20-22-24-26-28-30-32-41(52)62-37(34-59-40(51)31-29-27-25-23-21-19-16-14-12-10-8-6-4-2)35-60-48-47(58)45(56)43(54)39(64-48)36-61-49-46(57)44(55)42(53)38(33-50)63-49/h11,13,17-18,37-39,42-50,53-58H,3-10,12,14-16,19-36H2,1-2H3/b13-11-,18-17-/t37-,38-,39-,42+,43+,44+,45+,46-,47-,48-,49+/m1/s1

> <PUBCHEM_IUPAC_INCHIKEY>
QZXMUPATKGLZAP-DXLAUQRQSA-N

> <PUBCHEM_XLOGP3_AA>
9.8

> <PUBCHEM_EXACT_MASS>
916.612322

> <PUBCHEM_MOLECULAR_FORMULA>
C49H88O15

> <PUBCHEM_MOLECULAR_WEIGHT>
917.2

> <PUBCHEM_OPENEYE_CAN_SMILES>
CCCCCCCCCCCCCCCC(=O)OCC(COC1C(C(C(C(O1)COC2C(C(C(C(O2)CO)O)O)O)O)O)O)OC(=O)CCCCCCCC=CCC=CCCCCC

> <PUBCHEM_OPENEYE_ISO_SMILES>
CCCCCCCCCCCCCCCC(=O)OC[C@H](CO[C@H]1[C@@H]([C@H]([C@H]([C@H](O1)CO[C@@H]2[C@@H]([C@H]([C@H]([C@H](O2)CO)O)O)O)O)O)O)OC(=O)CCCCCCC/C=C\C/C=C\CCCCC

> <PUBCHEM_CACTVS_TPSA>
231

> <PUBCHEM_MONOISOTOPIC_WEIGHT>
916.612322

> <PUBCHEM_TOTAL_CHARGE>
0

> <PUBCHEM_HEAVY_ATOM_COUNT>
64

> <PUBCHEM_ATOM_DEF_STEREO_COUNT>
11

> <PUBCHEM_ATOM_UDEF_STEREO_COUNT>
0

> <PUBCHEM_BOND_DEF_STEREO_COUNT>
2

> <PUBCHEM_BOND_UDEF_STEREO_COUNT>
0

> <PUBCHEM_ISOTOPIC_ATOM_COUNT>
0

> <PUBCHEM_COMPONENT_COUNT>
1

> <PUBCHEM_CACTVS_TAUTO_COUNT>
-1

> <PUBCHEM_COORDINATE_TYPE>
1
5
255

> <PUBCHEM_BONDANNOTATIONS>
23  10  5
29  12  6
16  26  5
25  27  5
21  3  6
24  4  5
17  5  5
18  6  5
19  7  6
20  8  6
22  9  5

$$$$
