101634856
  -OEChem-11212002012D

158166  0     1  0  0  0  0  0999 V2000
   22.1241   -2.1484    0.0000 O   0  0  0  0  0  0  0  0  0  0  0  0
   21.5601   -2.4770    0.0000 O   0  0  0  0  0  0  0  0  0  0  0  0
   20.9028    1.2866    0.0000 O   0  0  0  0  0  0  0  0  0  0  0  0
   16.3933   -3.2832    0.0000 O   0  0  0  0  0  0  0  0  0  0  0  0
   22.3559    1.7917    0.0000 O   0  0  0  0  0  0  0  0  0  0  0  0
   19.1708    1.2799    0.0000 O   0  0  0  0  0  0  0  0  0  0  0  0
   14.6613   -3.2832    0.0000 O   0  0  0  0  0  0  0  0  0  0  0  0
   14.6613   -0.2832    0.0000 O   0  0  0  0  0  0  0  0  0  0  0  0
   12.9292   -1.2832    0.0000 O   0  0  0  0  0  0  0  0  0  0  0  0
   11.1972   -1.2832    0.0000 O   0  0  0  0  0  0  0  0  0  0  0  0
   11.1972   -4.2832    0.0000 O   0  0  0  0  0  0  0  0  0  0  0  0
    9.4651   -3.2832    0.0000 O   0  0  0  0  0  0  0  0  0  0  0  0
    8.5991   -1.7832    0.0000 O   0  0  0  0  0  0  0  0  0  0  0  0
    6.0010   -1.2832    0.0000 O   0  0  0  0  0  0  0  0  0  0  0  0
    6.0010   -3.2832    0.0000 O   0  0  0  0  0  0  0  0  0  0  0  0
    5.1350   -2.7832    0.0000 O   0  0  0  0  0  0  0  0  0  0  0  0
    2.5369   -1.2832    0.0000 O   0  0  0  0  0  0  0  0  0  0  0  0
    2.5369   -3.2832    0.0000 O   0  0  0  0  0  0  0  0  0  0  0  0
   21.7785   -1.2101    0.0000 C   0  0  2  0  0  0  0  0  0  0  0  0
   21.7746   -0.2101    0.0000 C   0  0  2  0  0  0  0  0  0  0  0  0
   20.9144   -1.7134    0.0000 C   0  0  2  0  0  0  0  0  0  0  0  0
   20.0464   -1.2168    0.0000 C   0  0  1  0  0  0  0  0  0  0  0  0
   20.9067    0.2866    0.0000 C   0  0  1  0  0  0  0  0  0  0  0  0
   19.1384   -1.7271    0.0000 C   0  0  2  0  0  0  0  0  0  0  0  0
   22.7197    0.0983    0.0000 C   0  0  3  0  0  0  0  0  0  0  0  0
   20.0426   -0.2168    0.0000 C   0  0  0  0  0  0  0  0  0  0  0  0
   22.7259   -1.5112    0.0000 C   0  0  0  0  0  0  0  0  0  0  0  0
   23.3064   -0.7042    0.0000 C   0  0  0  0  0  0  0  0  0  0  0  0
   20.9345   -2.7549    0.0000 C   0  0  0  0  0  0  0  0  0  0  0  0
   21.7708    0.7899    0.0000 C   0  0  0  0  0  0  0  0  0  0  0  0
   19.1344   -2.7687    0.0000 C   0  0  0  0  0  0  0  0  0  0  0  0
   18.2094   -1.1666    0.0000 C   0  0  0  0  0  0  0  0  0  0  0  0
   20.0385   -3.2861    0.0000 C   0  0  0  0  0  0  0  0  0  0  0  0
   19.1423   -0.7271    0.0000 C   0  0  0  0  0  0  0  0  0  0  0  0
   18.2011   -3.3221    0.0000 C   0  0  0  0  0  0  0  0  0  0  0  0
   23.0267    1.0500    0.0000 C   0  0  0  0  0  0  0  0  0  0  0  0
   17.2635   -1.6982    0.0000 C   0  0  0  0  0  0  0  0  0  0  0  0
   17.2594   -2.7832    0.0000 C   0  0  2  0  0  0  0  0  0  0  0  0
   24.0044    1.2600    0.0000 C   0  0  0  0  0  0  0  0  0  0  0  0
   20.0349    1.7832    0.0000 C   0  0  0  0  0  0  0  0  0  0  0  0
   15.5273   -2.7832    0.0000 C   0  0  2  0  0  0  0  0  0  0  0  0
   20.0310    2.7832    0.0000 C   0  0  0  0  0  0  0  0  0  0  0  0
   15.5273   -1.7832    0.0000 C   0  0  0  0  0  0  0  0  0  0  0  0
   14.6613   -1.2832    0.0000 C   0  0  1  0  0  0  0  0  0  0  0  0
   20.8951    3.2865    0.0000 C   0  0  0  0  0  0  0  0  0  0  0  0
   19.1631    3.2799    0.0000 C   0  0  0  0  0  0  0  0  0  0  0  0
   13.7953   -2.7832    0.0000 C   0  0  1  0  0  0  0  0  0  0  0  0
   13.7953   -1.7832    0.0000 C   0  0  1  0  0  0  0  0  0  0  0  0
   20.8913    4.2865    0.0000 C   0  0  0  0  0  0  0  0  0  0  0  0
   19.1592    4.2799    0.0000 C   0  0  0  0  0  0  0  0  0  0  0  0
   12.9292   -3.2832    0.0000 C   0  0  0  0  0  0  0  0  0  0  0  0
   20.0233    4.7832    0.0000 C   0  0  0  0  0  0  0  0  0  0  0  0
   12.0632   -1.7832    0.0000 C   0  0  2  0  0  0  0  0  0  0  0  0
   15.5273    0.2168    0.0000 C   0  0  0  0  0  0  0  0  0  0  0  0
   12.0632   -2.7832    0.0000 C   0  0  0  0  0  0  0  0  0  0  0  0
   11.1972   -3.2832    0.0000 C   0  0  1  0  0  0  0  0  0  0  0  0
   10.3312   -1.7832    0.0000 C   0  0  1  0  0  0  0  0  0  0  0  0
   10.3312   -2.7832    0.0000 C   0  0  1  0  0  0  0  0  0  0  0  0
    9.4651   -1.2832    0.0000 C   0  0  0  0  0  0  0  0  0  0  0  0
    8.5991   -2.7832    0.0000 C   0  0  2  0  0  0  0  0  0  0  0  0
   12.0632   -4.7832    0.0000 C   0  0  0  0  0  0  0  0  0  0  0  0
    7.7331   -3.2832    0.0000 C   0  0  0  0  0  0  0  0  0  0  0  0
    6.8671   -2.7832    0.0000 C   0  0  1  0  0  0  0  0  0  0  0  0
    6.8671   -1.7832    0.0000 C   0  0  1  0  0  0  0  0  0  0  0  0
    7.7331   -1.2832    0.0000 C   0  0  1  0  0  0  0  0  0  0  0  0
    7.7331   -0.2832    0.0000 C   0  0  0  0  0  0  0  0  0  0  0  0
    5.1350   -1.7832    0.0000 C   0  0  2  0  0  0  0  0  0  0  0  0
    4.2690   -1.2832    0.0000 C   0  0  0  0  0  0  0  0  0  0  0  0
    3.4030   -1.7832    0.0000 C   0  0  1  0  0  0  0  0  0  0  0  0
    3.4030   -2.7832    0.0000 C   0  0  1  0  0  0  0  0  0  0  0  0
    4.2690   -3.2832    0.0000 C   0  0  1  0  0  0  0  0  0  0  0  0
    6.0010   -4.2832    0.0000 C   0  0  0  0  0  0  0  0  0  0  0  0
    4.2690   -4.2832    0.0000 C   0  0  0  0  0  0  0  0  0  0  0  0
    2.5369   -0.2832    0.0000 C   0  0  0  0  0  0  0  0  0  0  0  0
   20.7809   -0.7889    0.0000 H   0  0  0  0  0  0  0  0  0  0  0  0
   20.3685    0.5945    0.0000 H   0  0  0  0  0  0  0  0  0  0  0  0
   23.3318    0.1968    0.0000 H   0  0  0  0  0  0  0  0  0  0  0  0
   19.8283    0.3650    0.0000 H   0  0  0  0  0  0  0  0  0  0  0  0
   19.4324   -0.3268    0.0000 H   0  0  0  0  0  0  0  0  0  0  0  0
   22.4770   -2.0790    0.0000 H   0  0  0  0  0  0  0  0  0  0  0  0
   23.2644   -1.8183    0.0000 H   0  0  0  0  0  0  0  0  0  0  0  0
   23.7688   -1.1171    0.0000 H   0  0  0  0  0  0  0  0  0  0  0  0
   23.7656   -0.2877    0.0000 H   0  0  0  0  0  0  0  0  0  0  0  0
   21.1547   -3.3344    0.0000 H   0  0  0  0  0  0  0  0  0  0  0  0
   21.5432   -2.6370    0.0000 H   0  0  0  0  0  0  0  0  0  0  0  0
   22.3908    0.7923    0.0000 H   0  0  0  0  0  0  0  0  0  0  0  0
   21.7684    1.4099    0.0000 H   0  0  0  0  0  0  0  0  0  0  0  0
   21.1508    0.7875    0.0000 H   0  0  0  0  0  0  0  0  0  0  0  0
   18.6158   -0.6984    0.0000 H   0  0  0  0  0  0  0  0  0  0  0  0
   17.8176   -0.6861    0.0000 H   0  0  0  0  0  0  0  0  0  0  0  0
   20.0432   -3.9060    0.0000 H   0  0  0  0  0  0  0  0  0  0  0  0
   22.7351   -2.2538    0.0000 H   0  0  0  0  0  0  0  0  0  0  0  0
   19.7622   -0.7295    0.0000 H   0  0  0  0  0  0  0  0  0  0  0  0
   19.1446   -0.1071    0.0000 H   0  0  0  0  0  0  0  0  0  0  0  0
   18.5223   -0.7247    0.0000 H   0  0  0  0  0  0  0  0  0  0  0  0
   21.6702   -3.0871    0.0000 H   0  0  0  0  0  0  0  0  0  0  0  0
   17.8056   -3.7996    0.0000 H   0  0  0  0  0  0  0  0  0  0  0  0
   18.6039   -3.7934    0.0000 H   0  0  0  0  0  0  0  0  0  0  0  0
   17.0567   -1.1137    0.0000 H   0  0  0  0  0  0  0  0  0  0  0  0
   16.6523   -1.8019    0.0000 H   0  0  0  0  0  0  0  0  0  0  0  0
   16.7230   -2.4722    0.0000 H   0  0  0  0  0  0  0  0  0  0  0  0
   24.1346    0.6538    0.0000 H   0  0  0  0  0  0  0  0  0  0  0  0
   24.6105    1.3902    0.0000 H   0  0  0  0  0  0  0  0  0  0  0  0
   23.8742    1.8662    0.0000 H   0  0  0  0  0  0  0  0  0  0  0  0
   15.5273   -3.4032    0.0000 H   0  0  0  0  0  0  0  0  0  0  0  0
   16.1379   -1.8908    0.0000 H   0  0  0  0  0  0  0  0  0  0  0  0
   15.7394   -1.2006    0.0000 H   0  0  0  0  0  0  0  0  0  0  0  0
   15.1982   -0.9732    0.0000 H   0  0  0  0  0  0  0  0  0  0  0  0
   21.4332    2.9786    0.0000 H   0  0  0  0  0  0  0  0  0  0  0  0
   18.6273    2.9678    0.0000 H   0  0  0  0  0  0  0  0  0  0  0  0
   13.7953   -3.4032    0.0000 H   0  0  0  0  0  0  0  0  0  0  0  0
   13.7953   -1.1632    0.0000 H   0  0  0  0  0  0  0  0  0  0  0  0
   21.4270    4.5986    0.0000 H   0  0  0  0  0  0  0  0  0  0  0  0
   18.6211    4.5878    0.0000 H   0  0  0  0  0  0  0  0  0  0  0  0
   12.6192   -2.7463    0.0000 H   0  0  0  0  0  0  0  0  0  0  0  0
   12.3923   -3.5932    0.0000 H   0  0  0  0  0  0  0  0  0  0  0  0
   13.2392   -3.8201    0.0000 H   0  0  0  0  0  0  0  0  0  0  0  0
   20.0209    5.4032    0.0000 H   0  0  0  0  0  0  0  0  0  0  0  0
   12.6002   -2.0932    0.0000 H   0  0  0  0  0  0  0  0  0  0  0  0
   15.8373   -0.3201    0.0000 H   0  0  0  0  0  0  0  0  0  0  0  0
   16.0643    0.5268    0.0000 H   0  0  0  0  0  0  0  0  0  0  0  0
   15.2173    0.7537    0.0000 H   0  0  0  0  0  0  0  0  0  0  0  0
   12.2753   -3.3658    0.0000 H   0  0  0  0  0  0  0  0  0  0  0  0
   12.6738   -2.6755    0.0000 H   0  0  0  0  0  0  0  0  0  0  0  0
   11.7341   -3.5932    0.0000 H   0  0  0  0  0  0  0  0  0  0  0  0
   10.3312   -1.1632    0.0000 H   0  0  0  0  0  0  0  0  0  0  0  0
    9.7942   -2.4732    0.0000 H   0  0  0  0  0  0  0  0  0  0  0  0
    9.7751   -0.7463    0.0000 H   0  0  0  0  0  0  0  0  0  0  0  0
    8.9282   -0.9732    0.0000 H   0  0  0  0  0  0  0  0  0  0  0  0
    9.1551   -1.8201    0.0000 H   0  0  0  0  0  0  0  0  0  0  0  0
    8.5991   -3.4032    0.0000 H   0  0  0  0  0  0  0  0  0  0  0  0
    7.3346   -3.7581    0.0000 H   0  0  0  0  0  0  0  0  0  0  0  0
    8.1316   -3.7581    0.0000 H   0  0  0  0  0  0  0  0  0  0  0  0
   11.7532   -5.3201    0.0000 H   0  0  0  0  0  0  0  0  0  0  0  0
   12.6002   -5.0932    0.0000 H   0  0  0  0  0  0  0  0  0  0  0  0
   12.3732   -4.2463    0.0000 H   0  0  0  0  0  0  0  0  0  0  0  0
    6.3301   -2.4732    0.0000 H   0  0  0  0  0  0  0  0  0  0  0  0
    6.8671   -1.1632    0.0000 H   0  0  0  0  0  0  0  0  0  0  0  0
    8.2700   -0.9732    0.0000 H   0  0  0  0  0  0  0  0  0  0  0  0
    8.3531   -0.2832    0.0000 H   0  0  0  0  0  0  0  0  0  0  0  0
    7.7331    0.3368    0.0000 H   0  0  0  0  0  0  0  0  0  0  0  0
    7.1131   -0.2832    0.0000 H   0  0  0  0  0  0  0  0  0  0  0  0
    5.1350   -1.1632    0.0000 H   0  0  0  0  0  0  0  0  0  0  0  0
    4.6675   -0.8082    0.0000 H   0  0  0  0  0  0  0  0  0  0  0  0
    3.8705   -0.8082    0.0000 H   0  0  0  0  0  0  0  0  0  0  0  0
    2.8660   -2.0932    0.0000 H   0  0  0  0  0  0  0  0  0  0  0  0
    3.4030   -3.4032    0.0000 H   0  0  0  0  0  0  0  0  0  0  0  0
    4.8059   -3.5932    0.0000 H   0  0  0  0  0  0  0  0  0  0  0  0
    5.3810   -4.2832    0.0000 H   0  0  0  0  0  0  0  0  0  0  0  0
    6.0010   -4.9032    0.0000 H   0  0  0  0  0  0  0  0  0  0  0  0
    6.6210   -4.2832    0.0000 H   0  0  0  0  0  0  0  0  0  0  0  0
    3.6490   -4.2832    0.0000 H   0  0  0  0  0  0  0  0  0  0  0  0
    4.2690   -4.9032    0.0000 H   0  0  0  0  0  0  0  0  0  0  0  0
    4.8890   -4.2832    0.0000 H   0  0  0  0  0  0  0  0  0  0  0  0
    2.0000   -2.9732    0.0000 H   0  0  0  0  0  0  0  0  0  0  0  0
    3.1569   -0.2832    0.0000 H   0  0  0  0  0  0  0  0  0  0  0  0
    2.5369    0.3368    0.0000 H   0  0  0  0  0  0  0  0  0  0  0  0
    1.9169   -0.2832    0.0000 H   0  0  0  0  0  0  0  0  0  0  0  0
 19  1  1  1  0  0  0
  1 92  1  0  0  0  0
 21  2  1  1  0  0  0
  2 96  1  0  0  0  0
 23  3  1  1  0  0  0
  3 40  1  0  0  0  0
 38  4  1  1  0  0  0
 41  4  1  6  0  0  0
  5 36  2  0  0  0  0
  6 40  2  0  0  0  0
  7 41  1  0  0  0  0
  7 47  1  0  0  0  0
 44  8  1  1  0  0  0
  8 54  1  0  0  0  0
 48  9  1  1  0  0  0
 53  9  1  1  0  0  0
 10 53  1  0  0  0  0
 10 57  1  0  0  0  0
 56 11  1  6  0  0  0
 11 61  1  0  0  0  0
 58 12  1  6  0  0  0
 60 12  1  1  0  0  0
 13 60  1  0  0  0  0
 13 65  1  0  0  0  0
 64 14  1  6  0  0  0
 67 14  1  6  0  0  0
 63 15  1  6  0  0  0
 15 72  1  0  0  0  0
 16 67  1  0  0  0  0
 16 71  1  0  0  0  0
 69 17  1  1  0  0  0
 17 74  1  0  0  0  0
 70 18  1  1  0  0  0
 18155  1  0  0  0  0
 19 20  1  0  0  0  0
 19 21  1  0  0  0  0
 19 27  1  0  0  0  0
 20 23  1  0  0  0  0
 20 25  1  0  0  0  0
 20 30  1  1  0  0  0
 21 22  1  0  0  0  0
 21 29  1  0  0  0  0
 22 24  1  0  0  0  0
 22 26  1  0  0  0  0
 22 75  1  6  0  0  0
 23 26  1  0  0  0  0
 23 76  1  0  0  0  0
 24 31  1  0  0  0  0
 24 32  1  0  0  0  0
 24 34  1  1  0  0  0
 25 28  1  0  0  0  0
 25 36  1  0  0  0  0
 25 77  1  0  0  0  0
 26 78  1  0  0  0  0
 26 79  1  0  0  0  0
 27 28  1  0  0  0  0
 27 80  1  0  0  0  0
 27 81  1  0  0  0  0
 28 82  1  0  0  0  0
 28 83  1  0  0  0  0
 29 33  1  0  0  0  0
 29 84  1  0  0  0  0
 29 85  1  0  0  0  0
 30 86  1  0  0  0  0
 30 87  1  0  0  0  0
 30 88  1  0  0  0  0
 31 33  2  0  0  0  0
 31 35  1  0  0  0  0
 32 37  1  0  0  0  0
 32 89  1  0  0  0  0
 32 90  1  0  0  0  0
 33 91  1  0  0  0  0
 34 93  1  0  0  0  0
 34 94  1  0  0  0  0
 34 95  1  0  0  0  0
 35 38  1  0  0  0  0
 35 97  1  0  0  0  0
 35 98  1  0  0  0  0
 36 39  1  0  0  0  0
 37 38  1  0  0  0  0
 37 99  1  0  0  0  0
 37100  1  0  0  0  0
 38101  1  0  0  0  0
 39102  1  0  0  0  0
 39103  1  0  0  0  0
 39104  1  0  0  0  0
 40 42  1  0  0  0  0
 41 43  1  0  0  0  0
 41105  1  0  0  0  0
 42 45  2  0  0  0  0
 42 46  1  0  0  0  0
 43 44  1  0  0  0  0
 43106  1  0  0  0  0
 43107  1  0  0  0  0
 44 48  1  0  0  0  0
 44108  1  0  0  0  0
 45 49  1  0  0  0  0
 45109  1  0  0  0  0
 46 50  2  0  0  0  0
 46110  1  0  0  0  0
 47 48  1  0  0  0  0
 47 51  1  6  0  0  0
 47111  1  0  0  0  0
 48112  1  0  0  0  0
 49 52  2  0  0  0  0
 49113  1  0  0  0  0
 50 52  1  0  0  0  0
 50114  1  0  0  0  0
 51115  1  0  0  0  0
 51116  1  0  0  0  0
 51117  1  0  0  0  0
 52118  1  0  0  0  0
 53 55  1  0  0  0  0
 53119  1  0  0  0  0
 54120  1  0  0  0  0
 54121  1  0  0  0  0
 54122  1  0  0  0  0
 55 56  1  0  0  0  0
 55123  1  0  0  0  0
 55124  1  0  0  0  0
 56 58  1  0  0  0  0
 56125  1  0  0  0  0
 57 58  1  0  0  0  0
 57 59  1  1  0  0  0
 57126  1  0  0  0  0
 58127  1  0  0  0  0
 59128  1  0  0  0  0
 59129  1  0  0  0  0
 59130  1  0  0  0  0
 60 62  1  0  0  0  0
 60131  1  0  0  0  0
 61134  1  0  0  0  0
 61135  1  0  0  0  0
 61136  1  0  0  0  0
 62 63  1  0  0  0  0
 62132  1  0  0  0  0
 62133  1  0  0  0  0
 63 64  1  0  0  0  0
 63137  1  0  0  0  0
 64 65  1  0  0  0  0
 64138  1  0  0  0  0
 65 66  1  1  0  0  0
 65139  1  0  0  0  0
 66140  1  0  0  0  0
 66141  1  0  0  0  0
 66142  1  0  0  0  0
 67 68  1  0  0  0  0
 67143  1  0  0  0  0
 68 69  1  0  0  0  0
 68144  1  0  0  0  0
 68145  1  0  0  0  0
 69 70  1  0  0  0  0
 69146  1  0  0  0  0
 70 71  1  0  0  0  0
 70147  1  0  0  0  0
 71 73  1  6  0  0  0
 71148  1  0  0  0  0
 72149  1  0  0  0  0
 72150  1  0  0  0  0
 72151  1  0  0  0  0
 73152  1  0  0  0  0
 73153  1  0  0  0  0
 73154  1  0  0  0  0
 74156  1  0  0  0  0
 74157  1  0  0  0  0
 74158  1  0  0  0  0
M  END
> <PUBCHEM_COMPOUND_CID>
101634856

> <PUBCHEM_COMPOUND_CANONICALIZED>
1

> <PUBCHEM_CACTVS_COMPLEXITY>
1970

> <PUBCHEM_CACTVS_HBOND_ACCEPTOR>
18

> <PUBCHEM_CACTVS_HBOND_DONOR>
3

> <PUBCHEM_CACTVS_ROTATABLE_BOND>
16

> <PUBCHEM_CACTVS_SUBSKEYS>
AAADcfB8PgAAAAAAAAAAAAAAAAAAAYAAAAA0aNEiAAAAAGCBAAAAGgAACAAAD1SwmAMyCIAABgCIAqDSCAACAAAkAAAIiAEACMgZNjKANRiicQAlwAEPqYfK7PzPgAAAAAAAAADCAAYQADCAAYAADAAAAA==

> <PUBCHEM_IUPAC_OPENEYE_NAME>
[(3S,8S,9R,10R,12R,13S,14R)-17-acetyl-8,14-dihydroxy-3-[(2R,4S,5R,6R)-5-[(2S,4S,5R,6R)-5-[(2S,4S,5R,6R)-5-[(2S,4S,5R,6R)-5-hydroxy-4-methoxy-6-methyl-tetrahydropyran-2-yl]oxy-4-methoxy-6-methyl-tetrahydropyran-2-yl]oxy-4-methoxy-6-methyl-tetrahydropyran-2-yl]oxy-4-methoxy-6-methyl-tetrahydropyran-2-yl]oxy-10,13-dimethyl-2,3,4,7,9,11,12,15,16,17-decahydro-1H-cyclopenta[a]phenanthren-12-yl] benzoate

> <PUBCHEM_IUPAC_CAS_NAME>
benzoic acid [(3S,8S,9R,10R,12R,13S,14R)-17-acetyl-8,14-dihydroxy-3-[[(2R,4S,5R,6R)-5-[[(2S,4S,5R,6R)-5-[[(2S,4S,5R,6R)-5-[[(2S,4S,5R,6R)-5-hydroxy-4-methoxy-6-methyl-2-oxanyl]oxy]-4-methoxy-6-methyl-2-oxanyl]oxy]-4-methoxy-6-methyl-2-oxanyl]oxy]-4-methoxy-6-methyl-2-oxanyl]oxy]-10,13-dimethyl-2,3,4,7,9,11,12,15,16,17-decahydro-1H-cyclopenta[a]phenanthren-12-yl] ester

> <PUBCHEM_IUPAC_NAME_MARKUP>
[(3<I>S</I>,8<I>S</I>,9<I>R</I>,10<I>R</I>,12<I>R</I>,13<I>S</I>,14<I>R</I>)-17-acetyl-8,14-dihydroxy-3-[(2<I>R</I>,4<I>S</I>,5<I>R</I>,6<I>R</I>)-5-[(2<I>S</I>,4<I>S</I>,5<I>R</I>,6<I>R</I>)-5-[(2<I>S</I>,4<I>S</I>,5<I>R</I>,6<I>R</I>)-5-[(2<I>S</I>,4<I>S</I>,5<I>R</I>,6<I>R</I>)-5-hydroxy-4-methoxy-6-methyloxan-2-yl]oxy-4-methoxy-6-methyloxan-2-yl]oxy-4-methoxy-6-methyloxan-2-yl]oxy-4-methoxy-6-methyloxan-2-yl]oxy-10,13-dimethyl-2,3,4,7,9,11,12,15,16,17-decahydro-1<I>H</I>-cyclopenta[a]phenanthren-12-yl] benzoate

> <PUBCHEM_IUPAC_NAME>
[(3S,8S,9R,10R,12R,13S,14R)-17-acetyl-8,14-dihydroxy-3-[(2R,4S,5R,6R)-5-[(2S,4S,5R,6R)-5-[(2S,4S,5R,6R)-5-[(2S,4S,5R,6R)-5-hydroxy-4-methoxy-6-methyloxan-2-yl]oxy-4-methoxy-6-methyloxan-2-yl]oxy-4-methoxy-6-methyloxan-2-yl]oxy-4-methoxy-6-methyloxan-2-yl]oxy-10,13-dimethyl-2,3,4,7,9,11,12,15,16,17-decahydro-1H-cyclopenta[a]phenanthren-12-yl] benzoate

> <PUBCHEM_IUPAC_SYSTEMATIC_NAME>
[(3S,8S,9R,10R,12R,13S,14R)-17-ethanoyl-3-[(2R,4S,5R,6R)-4-methoxy-5-[(2S,4S,5R,6R)-4-methoxy-5-[(2S,4S,5R,6R)-4-methoxy-5-[(2S,4S,5R,6R)-4-methoxy-6-methyl-5-oxidanyl-oxan-2-yl]oxy-6-methyl-oxan-2-yl]oxy-6-methyl-oxan-2-yl]oxy-6-methyl-oxan-2-yl]oxy-10,13-dimethyl-8,14-bis(oxidanyl)-2,3,4,7,9,11,12,15,16,17-decahydro-1H-cyclopenta[a]phenanthren-12-yl] benzoate

> <PUBCHEM_IUPAC_TRADITIONAL_NAME>
benzoic acid [(3S,8S,9R,10R,12R,13S,14R)-17-acetyl-8,14-dihydroxy-3-[(2R,4S,5R,6R)-5-[(2S,4S,5R,6R)-5-[(2S,4S,5R,6R)-5-[(2S,4S,5R,6R)-5-hydroxy-4-methoxy-6-methyl-tetrahydropyran-2-yl]oxy-4-methoxy-6-methyl-tetrahydropyran-2-yl]oxy-4-methoxy-6-methyl-tetrahydropyran-2-yl]oxy-4-methoxy-6-methyl-tetrahydropyran-2-yl]oxy-10,13-dimethyl-2,3,4,7,9,11,12,15,16,17-decahydro-1H-cyclopenta[a]phenanthren-12-yl] ester

> <PUBCHEM_IUPAC_INCHI>
InChI=1S/C56H84O18/c1-29(57)37-19-22-56(61)54(37,7)43(71-52(59)34-15-13-12-14-16-34)28-42-53(6)20-18-36(23-35(53)17-21-55(42,56)60)70-44-25-39(63-9)49(31(3)67-44)73-46-27-41(65-11)51(33(5)69-46)74-47-26-40(64-10)50(32(4)68-47)72-45-24-38(62-8)48(58)30(2)66-45/h12-17,30-33,36-51,58,60-61H,18-28H2,1-11H3/t30-,31-,32-,33-,36+,37?,38+,39+,40+,41+,42-,43-,44+,45+,46+,47+,48-,49-,50-,51-,53+,54+,55+,56-/m1/s1

> <PUBCHEM_IUPAC_INCHIKEY>
WVIFWIRUJXGCNY-QQVYAMJJSA-N

> <PUBCHEM_XLOGP3_AA>
4.3

> <PUBCHEM_EXACT_MASS>
1044.565766

> <PUBCHEM_MOLECULAR_FORMULA>
C56H84O18

> <PUBCHEM_MOLECULAR_WEIGHT>
1045.3

> <PUBCHEM_OPENEYE_CAN_SMILES>
CC1C(C(CC(O1)OC2C(OC(CC2OC)OC3C(OC(CC3OC)OC4C(OC(CC4OC)OC5CCC6(C7CC(C8(C(CCC8(C7(CC=C6C5)O)O)C(=O)C)C)OC(=O)C9=CC=CC=C9)C)C)C)C)OC)O

> <PUBCHEM_OPENEYE_ISO_SMILES>
C[C@@H]1[C@H]([C@H](C[C@@H](O1)O[C@@H]2[C@H](O[C@H](C[C@@H]2OC)O[C@@H]3[C@H](O[C@H](C[C@@H]3OC)O[C@@H]4[C@H](O[C@H](C[C@@H]4OC)O[C@H]5CC[C@@]6([C@H]7C[C@H]([C@@]8(C(CC[C@@]8([C@@]7(CC=C6C5)O)O)C(=O)C)C)OC(=O)C9=CC=CC=C9)C)C)C)C)OC)O

> <PUBCHEM_CACTVS_TPSA>
215

> <PUBCHEM_MONOISOTOPIC_WEIGHT>
1044.565766

> <PUBCHEM_TOTAL_CHARGE>
0

> <PUBCHEM_HEAVY_ATOM_COUNT>
74

> <PUBCHEM_ATOM_DEF_STEREO_COUNT>
23

> <PUBCHEM_ATOM_UDEF_STEREO_COUNT>
1

> <PUBCHEM_BOND_DEF_STEREO_COUNT>
0

> <PUBCHEM_BOND_UDEF_STEREO_COUNT>
0

> <PUBCHEM_ISOTOPIC_ATOM_COUNT>
0

> <PUBCHEM_COMPONENT_COUNT>
1

> <PUBCHEM_CACTVS_TAUTO_COUNT>
-1

> <PUBCHEM_COORDINATE_TYPE>
1
5
255

> <PUBCHEM_BONDANNOTATIONS>
19  1  5
56  11  6
58  12  6
60  12  5
64  14  6
67  14  6
63  15  6
69  17  5
70  18  5
21  2  5
20  30  5
22  75  6
24  34  5
25  36  3
23  3  5
38  4  5
41  4  6
42  45  8
42  46  8
45  49  8
46  50  8
47  51  6
49  52  8
50  52  8
57  59  5
65  66  5
71  73  6
44  8  5
48  9  5
53  9  5

$$$$
