146157076
  -OEChem-09082016042D

 83 87  0     1  0  0  0  0  0999 V2000
    4.7621   -4.9243    0.0000 O   0  0  0  0  0  0  0  0  0  0  0  0
    7.0399    5.0552    0.0000 O   0  0  0  0  0  0  0  0  0  0  0  0
    2.2712   -4.4268    0.0000 O   0  0  0  0  0  0  0  0  0  0  0  0
    4.4894   -1.7807    0.0000 C   0  0  2  0  0  0  0  0  0  0  0  0
    4.3955   -0.7433    0.0000 C   0  0  3  0  0  0  0  0  0  0  0  0
    3.4945   -0.3094    0.0000 C   0  0  1  0  0  0  0  0  0  0  0  0
    3.6333   -2.3741    0.0000 C   0  0  3  0  0  0  0  0  0  0  0  0
    3.7060   -3.4566    0.0000 C   0  0  2  0  0  0  0  0  0  0  0  0
    5.4302    2.3413    0.0000 C   0  0  2  0  0  0  0  0  0  0  0  0
    4.8955    1.4474    0.0000 C   0  0  3  0  0  0  0  0  0  0  0  0
    2.6250   -0.8828    0.0000 C   0  0  0  0  0  0  0  0  0  0  0  0
    2.6948   -1.9221    0.0000 C   0  0  0  0  0  0  0  0  0  0  0  0
    5.2965   -0.3094    0.0000 C   0  0  0  0  0  0  0  0  0  0  0  0
    5.4775   -2.2287    0.0000 C   0  0  0  0  0  0  0  0  0  0  0  0
    3.2720    0.6655    0.0000 C   0  0  0  0  0  0  0  0  0  0  0  0
    4.9163    3.2474    0.0000 C   0  0  3  0  0  0  0  0  0  0  0  0
    5.5190    0.6655    0.0000 C   0  0  0  0  0  0  0  0  0  0  0  0
    3.8955    1.4474    0.0000 C   0  0  0  0  0  0  0  0  0  0  0  0
    4.6835   -3.9274    0.0000 C   0  0  3  0  0  0  0  0  0  0  0  0
    5.5753   -3.3093    0.0000 C   0  0  0  0  0  0  0  0  0  0  0  0
    5.3112   -1.2110    0.0000 C   0  0  0  0  0  0  0  0  0  0  0  0
    5.4516    4.1912    0.0000 C   0  0  0  0  0  0  0  0  0  0  0  0
    2.5936    0.1245    0.0000 C   0  0  0  0  0  0  0  0  0  0  0  0
    6.5149    2.3162    0.0000 C   0  0  0  0  0  0  0  0  0  0  0  0
    3.8747    3.2474    0.0000 C   0  0  0  0  0  0  0  0  0  0  0  0
    3.3608    2.3413    0.0000 C   0  0  0  0  0  0  0  0  0  0  0  0
    6.5366    4.1912    0.0000 C   0  0  3  0  0  0  0  0  0  0  0  0
    3.2686   -4.3559    0.0000 C   0  0  0  0  0  0  0  0  0  0  0  0
    2.7085   -3.5275    0.0000 C   0  0  0  0  0  0  0  0  0  0  0  0
    7.0718    3.2474    0.0000 C   0  0  0  0  0  0  0  0  0  0  0  0
    5.9235    1.4714    0.0000 C   0  0  0  0  0  0  0  0  0  0  0  0
    5.4477    5.1912    0.0000 C   0  0  0  0  0  0  0  0  0  0  0  0
    4.5836    4.6878    0.0000 C   0  0  0  0  0  0  0  0  0  0  0  0
    4.9348   -1.0491    0.0000 H   0  0  0  0  0  0  0  0  0  0  0  0
    3.1196   -2.7214    0.0000 H   0  0  0  0  0  0  0  0  0  0  0  0
    5.5141    1.4889    0.0000 H   0  0  0  0  0  0  0  0  0  0  0  0
    2.3772   -0.3145    0.0000 H   0  0  0  0  0  0  0  0  0  0  0  0
    2.0226   -1.0296    0.0000 H   0  0  0  0  0  0  0  0  0  0  0  0
    2.0782   -1.8572    0.0000 H   0  0  0  0  0  0  0  0  0  0  0  0
    2.5253   -2.5185    0.0000 H   0  0  0  0  0  0  0  0  0  0  0  0
    5.4344   -0.9139    0.0000 H   0  0  0  0  0  0  0  0  0  0  0  0
    5.9165   -0.3094    0.0000 H   0  0  0  0  0  0  0  0  0  0  0  0
    6.0954   -2.2793    0.0000 H   0  0  0  0  0  0  0  0  0  0  0  0
    5.6331   -1.6286    0.0000 H   0  0  0  0  0  0  0  0  0  0  0  0
    2.8854    1.1503    0.0000 H   0  0  0  0  0  0  0  0  0  0  0  0
    2.7134    0.3965    0.0000 H   0  0  0  0  0  0  0  0  0  0  0  0
    4.6043    3.7831    0.0000 H   0  0  0  0  0  0  0  0  0  0  0  0
    6.0776    0.3965    0.0000 H   0  0  0  0  0  0  0  0  0  0  0  0
    5.9056    1.1503    0.0000 H   0  0  0  0  0  0  0  0  0  0  0  0
    4.1720   -4.2776    0.0000 H   0  0  0  0  0  0  0  0  0  0  0  0
    5.8361   -3.8718    0.0000 H   0  0  0  0  0  0  0  0  0  0  0  0
    6.1741   -3.1486    0.0000 H   0  0  0  0  0  0  0  0  0  0  0  0
    5.6644   -1.7206    0.0000 H   0  0  0  0  0  0  0  0  0  0  0  0
    5.8208   -0.8578    0.0000 H   0  0  0  0  0  0  0  0  0  0  0  0
    4.9580   -0.7014    0.0000 H   0  0  0  0  0  0  0  0  0  0  0  0
    2.8626    0.6831    0.0000 H   0  0  0  0  0  0  0  0  0  0  0  0
    2.0350    0.3935    0.0000 H   0  0  0  0  0  0  0  0  0  0  0  0
    2.3246   -0.4341    0.0000 H   0  0  0  0  0  0  0  0  0  0  0  0
    6.3947    1.7080    0.0000 H   0  0  0  0  0  0  0  0  0  0  0  0
    7.0936    2.0937    0.0000 H   0  0  0  0  0  0  0  0  0  0  0  0
    3.9808    3.8582    0.0000 H   0  0  0  0  0  0  0  0  0  0  0  0
    3.2910    3.4564    0.0000 H   0  0  0  0  0  0  0  0  0  0  0  0
    2.7409    2.3341    0.0000 H   0  0  0  0  0  0  0  0  0  0  0  0
    6.2276    4.7287    0.0000 H   0  0  0  0  0  0  0  0  0  0  0  0
    3.2045   -4.9726    0.0000 H   0  0  0  0  0  0  0  0  0  0  0  0
    3.8648   -4.5261    0.0000 H   0  0  0  0  0  0  0  0  0  0  0  0
    2.6646   -2.9091    0.0000 H   0  0  0  0  0  0  0  0  0  0  0  0
    2.0901   -3.5715    0.0000 H   0  0  0  0  0  0  0  0  0  0  0  0
    2.7525   -4.1460    0.0000 H   0  0  0  0  0  0  0  0  0  0  0  0
    7.5416    2.8428    0.0000 H   0  0  0  0  0  0  0  0  0  0  0  0
    7.5508    3.6410    0.0000 H   0  0  0  0  0  0  0  0  0  0  0  0
    5.3842    1.1656    0.0000 H   0  0  0  0  0  0  0  0  0  0  0  0
    6.2293    0.9321    0.0000 H   0  0  0  0  0  0  0  0  0  0  0  0
    6.4628    1.7773    0.0000 H   0  0  0  0  0  0  0  0  0  0  0  0
    6.0677    5.1935    0.0000 H   0  0  0  0  0  0  0  0  0  0  0  0
    5.4453    5.8111    0.0000 H   0  0  0  0  0  0  0  0  0  0  0  0
    4.8277    5.1888    0.0000 H   0  0  0  0  0  0  0  0  0  0  0  0
    4.8915    5.2259    0.0000 H   0  0  0  0  0  0  0  0  0  0  0  0
    4.0455    4.9957    0.0000 H   0  0  0  0  0  0  0  0  0  0  0  0
    4.2757    4.1497    0.0000 H   0  0  0  0  0  0  0  0  0  0  0  0
    5.3218   -5.1912    0.0000 H   0  0  0  0  0  0  0  0  0  0  0  0
    7.6599    5.0529    0.0000 H   0  0  0  0  0  0  0  0  0  0  0  0
    2.0000   -4.9844    0.0000 H   0  0  0  0  0  0  0  0  0  0  0  0
  1 19  1  0  0  0  0
  1 81  1  0  0  0  0
  2 27  1  0  0  0  0
  2 82  1  0  0  0  0
  3 28  1  0  0  0  0
  3 83  1  0  0  0  0
  4  5  1  0  0  0  0
  4  7  1  0  0  0  0
  4 14  1  0  0  0  0
  4 21  1  6  0  0  0
  5  6  1  0  0  0  0
  5 13  1  0  0  0  0
  5 34  1  0  0  0  0
  6 11  1  0  0  0  0
  6 15  1  0  0  0  0
  6 23  1  6  0  0  0
  7  8  1  0  0  0  0
  7 12  1  0  0  0  0
  7 35  1  0  0  0  0
  8 19  1  0  0  0  0
  8 28  1  0  0  0  0
  8 29  1  1  0  0  0
  9 10  1  0  0  0  0
  9 16  1  0  0  0  0
  9 24  1  0  0  0  0
  9 31  1  1  0  0  0
 10 17  1  0  0  0  0
 10 18  1  0  0  0  0
 10 36  1  0  0  0  0
 11 12  1  0  0  0  0
 11 37  1  0  0  0  0
 11 38  1  0  0  0  0
 12 39  1  0  0  0  0
 12 40  1  0  0  0  0
 13 17  1  0  0  0  0
 13 41  1  0  0  0  0
 13 42  1  0  0  0  0
 14 20  1  0  0  0  0
 14 43  1  0  0  0  0
 14 44  1  0  0  0  0
 15 18  1  0  0  0  0
 15 45  1  0  0  0  0
 15 46  1  0  0  0  0
 16 22  1  0  0  0  0
 16 25  1  0  0  0  0
 16 47  1  0  0  0  0
 17 48  1  0  0  0  0
 17 49  1  0  0  0  0
 18 26  2  0  0  0  0
 19 20  1  0  0  0  0
 19 50  1  0  0  0  0
 20 51  1  0  0  0  0
 20 52  1  0  0  0  0
 21 53  1  0  0  0  0
 21 54  1  0  0  0  0
 21 55  1  0  0  0  0
 22 27  1  0  0  0  0
 22 32  1  0  0  0  0
 22 33  1  0  0  0  0
 23 56  1  0  0  0  0
 23 57  1  0  0  0  0
 23 58  1  0  0  0  0
 24 30  1  0  0  0  0
 24 59  1  0  0  0  0
 24 60  1  0  0  0  0
 25 26  1  0  0  0  0
 25 61  1  0  0  0  0
 25 62  1  0  0  0  0
 26 63  1  0  0  0  0
 27 30  1  0  0  0  0
 27 64  1  0  0  0  0
 28 65  1  0  0  0  0
 28 66  1  0  0  0  0
 29 67  1  0  0  0  0
 29 68  1  0  0  0  0
 29 69  1  0  0  0  0
 30 70  1  0  0  0  0
 30 71  1  0  0  0  0
 31 72  1  0  0  0  0
 31 73  1  0  0  0  0
 31 74  1  0  0  0  0
 32 75  1  0  0  0  0
 32 76  1  0  0  0  0
 32 77  1  0  0  0  0
 33 78  1  0  0  0  0
 33 79  1  0  0  0  0
 33 80  1  0  0  0  0
M  END
> <PUBCHEM_COMPOUND_CID>
146157076

> <PUBCHEM_COMPOUND_CANONICALIZED>
1

> <PUBCHEM_CACTVS_COMPLEXITY>
817

> <PUBCHEM_CACTVS_HBOND_ACCEPTOR>
3

> <PUBCHEM_CACTVS_HBOND_DONOR>
3

> <PUBCHEM_CACTVS_ROTATABLE_BOND>
1

> <PUBCHEM_CACTVS_SUBSKEYS>
AAADcfB4MAAAAAAAAAAAAAAAAAAAAAAAAAAwYMEABgAAAADAAAAAGgAACAAADxSggAICAAAAAgCAAiBCAAAAAAAgAAAACAAAAAgAEAIAAQAAQAAFgAAIAAOAwPAPgAAAAAAAAADAAAYAADAAAAAAAAAAAA==

> <PUBCHEM_IUPAC_OPENEYE_NAME>
(3S,7S,11R,16R)-7-(hydroxymethyl)-3,7,11,16,20,20-hexamethyl-pentacyclo[13.8.0.03,12.06,11.016,21]tricos-1(23)-ene-8,19-diol

> <PUBCHEM_IUPAC_CAS_NAME>
(3S,7S,11R,16R)-7-(hydroxymethyl)-3,7,11,16,20,20-hexamethylpentacyclo[13.8.0.03,12.06,11.016,21]tricos-1(23)-ene-8,19-diol

> <PUBCHEM_IUPAC_NAME_MARKUP>
(3<I>S</I>,7<I>S</I>,11<I>R</I>,16<I>R</I>)-7-(hydroxymethyl)-3,7,11,16,20,20-hexamethylpentacyclo[13.8.0.0<SUP>3,12</SUP>.0<SUP>6,11</SUP>.0<SUP>16,21</SUP>]tricos-1(23)-ene-8,19-diol

> <PUBCHEM_IUPAC_NAME>
(3S,7S,11R,16R)-7-(hydroxymethyl)-3,7,11,16,20,20-hexamethylpentacyclo[13.8.0.03,12.06,11.016,21]tricos-1(23)-ene-8,19-diol

> <PUBCHEM_IUPAC_SYSTEMATIC_NAME>
(3S,7S,11R,16R)-7-(hydroxymethyl)-3,7,11,16,20,20-hexamethyl-pentacyclo[13.8.0.03,12.06,11.016,21]tricos-1(23)-ene-8,19-diol

> <PUBCHEM_IUPAC_TRADITIONAL_NAME>
(3S,7S,11R,16R)-3,7,11,16,20,20-hexamethyl-7-methylol-pentacyclo[13.8.0.03,12.06,11.016,21]tricos-1(23)-ene-8,19-diol

> <PUBCHEM_IUPAC_INCHI>
InChI=1S/C30H50O3/c1-26(2)21-9-7-19-17-27(3)14-11-23-29(5,16-13-25(33)30(23,6)18-31)22(27)10-8-20(19)28(21,4)15-12-24(26)32/h7,20-25,31-33H,8-18H2,1-6H3/t20?,21?,22?,23?,24?,25?,27-,28+,29+,30+/m0/s1

> <PUBCHEM_IUPAC_INCHIKEY>
VYUNCIDAMBNEFU-ODWQXCPLSA-N

> <PUBCHEM_XLOGP3_AA>
6.9

> <PUBCHEM_EXACT_MASS>
458.375995

> <PUBCHEM_MOLECULAR_FORMULA>
C30H50O3

> <PUBCHEM_MOLECULAR_WEIGHT>
458.7

> <PUBCHEM_OPENEYE_CAN_SMILES>
CC1(C(CCC2(C1CC=C3C2CCC4C(C3)(CCC5C4(CCC(C5(C)CO)O)C)C)C)O)C

> <PUBCHEM_OPENEYE_ISO_SMILES>
C[C@@]12CCC3[C@@](C1CCC4C(=CCC5[C@@]4(CCC(C5(C)C)O)C)C2)(CCC([C@]3(C)CO)O)C

> <PUBCHEM_CACTVS_TPSA>
60.7

> <PUBCHEM_MONOISOTOPIC_WEIGHT>
458.375995

> <PUBCHEM_TOTAL_CHARGE>
0

> <PUBCHEM_HEAVY_ATOM_COUNT>
33

> <PUBCHEM_ATOM_DEF_STEREO_COUNT>
4

> <PUBCHEM_ATOM_UDEF_STEREO_COUNT>
6

> <PUBCHEM_BOND_DEF_STEREO_COUNT>
0

> <PUBCHEM_BOND_UDEF_STEREO_COUNT>
0

> <PUBCHEM_ISOTOPIC_ATOM_COUNT>
0

> <PUBCHEM_COMPONENT_COUNT>
1

> <PUBCHEM_CACTVS_TAUTO_COUNT>
-1

> <PUBCHEM_COORDINATE_TYPE>
1
5
255

> <PUBCHEM_BONDANNOTATIONS>
19  1  3
10  17  3
16  25  3
27  2  3
4  21  6
5  13  3
6  23  6
7  12  3
8  29  5
9  31  5

$$$$
