127258928
  -OEChem-11232017072D

106110  0     1  0  0  0  0  0999 V2000
   10.3312   -2.7500    0.0000 O   0  0  0  0  0  0  0  0  0  0  0  0
   10.3312    0.2500    0.0000 O   0  0  0  0  0  0  0  0  0  0  0  0
   12.0632   -2.7500    0.0000 O   0  0  0  0  0  0  0  0  0  0  0  0
    8.5991   -1.7500    0.0000 O   0  0  0  0  0  0  0  0  0  0  0  0
    8.5991    1.2500    0.0000 O   0  0  0  0  0  0  0  0  0  0  0  0
   12.0632   -1.7500    0.0000 O   0  0  0  0  0  0  0  0  0  0  0  0
   12.0632    0.2500    0.0000 O   0  0  0  0  0  0  0  0  0  0  0  0
    6.8671    1.2500    0.0000 O   0  0  0  0  0  0  0  0  0  0  0  0
   10.3312   -4.7500    0.0000 O   0  0  0  0  0  0  0  0  0  0  0  0
   12.0632   -5.7500    0.0000 O   0  0  0  0  0  0  0  0  0  0  0  0
   13.7953   -4.7500    0.0000 O   0  0  0  0  0  0  0  0  0  0  0  0
    8.5991    3.2500    0.0000 O   0  0  0  0  0  0  0  0  0  0  0  0
    6.8671    4.2500    0.0000 O   0  0  0  0  0  0  0  0  0  0  0  0
    5.1350    3.2500    0.0000 O   0  0  0  0  0  0  0  0  0  0  0  0
    4.2690    1.7500    0.0000 O   0  0  0  0  0  0  0  0  0  0  0  0
    7.7331   -0.2500    0.0000 O   0  0  0  0  0  0  0  0  0  0  0  0
   12.9292   -0.2500    0.0000 O   0  0  0  0  0  0  0  0  0  0  0  0
   14.6613    4.7500    0.0000 O   0  0  0  0  0  0  0  0  0  0  0  0
   12.9292    5.7500    0.0000 O   0  0  0  0  0  0  0  0  0  0  0  0
    2.5369   -1.2500    0.0000 O   0  0  0  0  0  0  0  0  0  0  0  0
    2.5369   -3.2500    0.0000 O   0  0  0  0  0  0  0  0  0  0  0  0
   10.3312   -1.7500    0.0000 C   0  0  3  0  0  0  0  0  0  0  0  0
    9.4651   -1.2500    0.0000 C   0  0  3  0  0  0  0  0  0  0  0  0
    9.4651   -0.2500    0.0000 C   0  0  3  0  0  0  0  0  0  0  0  0
   11.1972   -1.2500    0.0000 C   0  0  3  0  0  0  0  0  0  0  0  0
   11.1972   -0.2500    0.0000 C   0  0  3  0  0  0  0  0  0  0  0  0
   11.1972   -3.2500    0.0000 C   0  0  3  0  0  0  0  0  0  0  0  0
   11.1972   -4.2500    0.0000 C   0  0  3  0  0  0  0  0  0  0  0  0
    8.5991    0.2500    0.0000 C   0  0  0  0  0  0  0  0  0  0  0  0
   12.0632   -4.7500    0.0000 C   0  0  3  0  0  0  0  0  0  0  0  0
   12.9292   -4.2500    0.0000 C   0  0  3  0  0  0  0  0  0  0  0  0
   12.9292   -3.2500    0.0000 C   0  0  3  0  0  0  0  0  0  0  0  0
    7.7331    1.7500    0.0000 C   0  0  3  0  0  0  0  0  0  0  0  0
    7.7331    2.7500    0.0000 C   0  0  3  0  0  0  0  0  0  0  0  0
    6.8671    3.2500    0.0000 C   0  0  3  0  0  0  0  0  0  0  0  0
    6.0010    2.7500    0.0000 C   0  0  3  0  0  0  0  0  0  0  0  0
    6.0010    1.7500    0.0000 C   0  0  3  0  0  0  0  0  0  0  0  0
   13.7953   -2.7500    0.0000 C   0  0  0  0  0  0  0  0  0  0  0  0
   12.0632    1.2500    0.0000 C   0  0  0  0  0  0  0  0  0  0  0  0
    5.1350    1.2500    0.0000 C   0  0  0  0  0  0  0  0  0  0  0  0
    7.7331   -1.2500    0.0000 C   0  0  0  0  0  0  0  0  0  0  0  0
   12.9292   -1.2500    0.0000 C   0  0  0  0  0  0  0  0  0  0  0  0
   12.9292    1.7500    0.0000 C   0  0  0  0  0  0  0  0  0  0  0  0
   13.7953   -1.7500    0.0000 C   0  0  0  0  0  0  0  0  0  0  0  0
    6.8671   -1.7500    0.0000 C   0  0  0  0  0  0  0  0  0  0  0  0
   12.9292    2.7500    0.0000 C   0  0  0  0  0  0  0  0  0  0  0  0
    6.0010   -1.2500    0.0000 C   0  0  0  0  0  0  0  0  0  0  0  0
   13.7953    3.2500    0.0000 C   0  0  0  0  0  0  0  0  0  0  0  0
   12.0632    3.2500    0.0000 C   0  0  0  0  0  0  0  0  0  0  0  0
    5.1350   -1.7500    0.0000 C   0  0  0  0  0  0  0  0  0  0  0  0
   13.7953    4.2500    0.0000 C   0  0  0  0  0  0  0  0  0  0  0  0
   12.0632    4.2500    0.0000 C   0  0  0  0  0  0  0  0  0  0  0  0
   12.9292    4.7500    0.0000 C   0  0  0  0  0  0  0  0  0  0  0  0
    4.2690   -1.2500    0.0000 C   0  0  0  0  0  0  0  0  0  0  0  0
    5.1350   -2.7500    0.0000 C   0  0  0  0  0  0  0  0  0  0  0  0
    3.4030   -1.7500    0.0000 C   0  0  0  0  0  0  0  0  0  0  0  0
    4.2690   -3.2500    0.0000 C   0  0  0  0  0  0  0  0  0  0  0  0
    3.4030   -2.7500    0.0000 C   0  0  0  0  0  0  0  0  0  0  0  0
   10.8681   -2.0600    0.0000 H   0  0  0  0  0  0  0  0  0  0  0  0
    9.4651   -1.8700    0.0000 H   0  0  0  0  0  0  0  0  0  0  0  0
    9.4651    0.3700    0.0000 H   0  0  0  0  0  0  0  0  0  0  0  0
   11.1972   -1.8700    0.0000 H   0  0  0  0  0  0  0  0  0  0  0  0
   11.7341   -0.5600    0.0000 H   0  0  0  0  0  0  0  0  0  0  0  0
   11.1972   -2.6300    0.0000 H   0  0  0  0  0  0  0  0  0  0  0  0
   11.1972   -4.8700    0.0000 H   0  0  0  0  0  0  0  0  0  0  0  0
    7.9885    0.3577    0.0000 H   0  0  0  0  0  0  0  0  0  0  0  0
    8.3871   -0.3326    0.0000 H   0  0  0  0  0  0  0  0  0  0  0  0
   11.5263   -5.0600    0.0000 H   0  0  0  0  0  0  0  0  0  0  0  0
   12.9292   -4.8700    0.0000 H   0  0  0  0  0  0  0  0  0  0  0  0
   12.9292   -2.6300    0.0000 H   0  0  0  0  0  0  0  0  0  0  0  0
    7.7331    1.1300    0.0000 H   0  0  0  0  0  0  0  0  0  0  0  0
    8.2700    2.4400    0.0000 H   0  0  0  0  0  0  0  0  0  0  0  0
    7.4040    3.5600    0.0000 H   0  0  0  0  0  0  0  0  0  0  0  0
    6.0010    3.3700    0.0000 H   0  0  0  0  0  0  0  0  0  0  0  0
    6.0010    1.1300    0.0000 H   0  0  0  0  0  0  0  0  0  0  0  0
   14.1053   -3.2869    0.0000 H   0  0  0  0  0  0  0  0  0  0  0  0
   14.3322   -2.4400    0.0000 H   0  0  0  0  0  0  0  0  0  0  0  0
   13.4853   -2.2131    0.0000 H   0  0  0  0  0  0  0  0  0  0  0  0
   10.3312   -5.3700    0.0000 H   0  0  0  0  0  0  0  0  0  0  0  0
   11.8512    1.8326    0.0000 H   0  0  0  0  0  0  0  0  0  0  0  0
   11.4526    1.1423    0.0000 H   0  0  0  0  0  0  0  0  0  0  0  0
    4.7365    0.7751    0.0000 H   0  0  0  0  0  0  0  0  0  0  0  0
    5.5335    0.7751    0.0000 H   0  0  0  0  0  0  0  0  0  0  0  0
   12.6002   -6.0600    0.0000 H   0  0  0  0  0  0  0  0  0  0  0  0
   14.3322   -4.4400    0.0000 H   0  0  0  0  0  0  0  0  0  0  0  0
    8.5991    3.8700    0.0000 H   0  0  0  0  0  0  0  0  0  0  0  0
    6.3301    4.5600    0.0000 H   0  0  0  0  0  0  0  0  0  0  0  0
   13.1413    1.1674    0.0000 H   0  0  0  0  0  0  0  0  0  0  0  0
   13.5398    1.8577    0.0000 H   0  0  0  0  0  0  0  0  0  0  0  0
    5.1350    3.8700    0.0000 H   0  0  0  0  0  0  0  0  0  0  0  0
   13.4853   -2.2869    0.0000 H   0  0  0  0  0  0  0  0  0  0  0  0
   14.3322   -2.0600    0.0000 H   0  0  0  0  0  0  0  0  0  0  0  0
   14.1053   -1.2131    0.0000 H   0  0  0  0  0  0  0  0  0  0  0  0
    6.8671   -2.3700    0.0000 H   0  0  0  0  0  0  0  0  0  0  0  0
    3.7320    1.4400    0.0000 H   0  0  0  0  0  0  0  0  0  0  0  0
    6.0010   -0.6300    0.0000 H   0  0  0  0  0  0  0  0  0  0  0  0
   14.3322    2.9400    0.0000 H   0  0  0  0  0  0  0  0  0  0  0  0
   11.5263    2.9400    0.0000 H   0  0  0  0  0  0  0  0  0  0  0  0
   11.5263    4.5600    0.0000 H   0  0  0  0  0  0  0  0  0  0  0  0
    4.2690   -0.6300    0.0000 H   0  0  0  0  0  0  0  0  0  0  0  0
    5.6720   -3.0600    0.0000 H   0  0  0  0  0  0  0  0  0  0  0  0
   15.1982    4.4400    0.0000 H   0  0  0  0  0  0  0  0  0  0  0  0
    4.2690   -3.8700    0.0000 H   0  0  0  0  0  0  0  0  0  0  0  0
   12.3923    6.0600    0.0000 H   0  0  0  0  0  0  0  0  0  0  0  0
    2.0000   -1.5600    0.0000 H   0  0  0  0  0  0  0  0  0  0  0  0
    2.5369   -3.8700    0.0000 H   0  0  0  0  0  0  0  0  0  0  0  0
  1 22  1  0  0  0  0
  1 27  1  0  0  0  0
  2 24  1  0  0  0  0
  2 26  1  0  0  0  0
  3 27  1  0  0  0  0
  3 32  1  0  0  0  0
  4 23  1  0  0  0  0
  4 41  1  0  0  0  0
  5 29  1  0  0  0  0
  5 33  1  0  0  0  0
  6 25  1  0  0  0  0
  6 42  1  0  0  0  0
  7 26  1  0  0  0  0
  7 39  1  0  0  0  0
  8 33  1  0  0  0  0
  8 37  1  0  0  0  0
  9 28  1  0  0  0  0
  9 79  1  0  0  0  0
 10 30  1  0  0  0  0
 10 84  1  0  0  0  0
 11 31  1  0  0  0  0
 11 85  1  0  0  0  0
 12 34  1  0  0  0  0
 12 86  1  0  0  0  0
 13 35  1  0  0  0  0
 13 87  1  0  0  0  0
 14 36  1  0  0  0  0
 14 90  1  0  0  0  0
 15 40  1  0  0  0  0
 15 95  1  0  0  0  0
 16 41  2  0  0  0  0
 17 42  2  0  0  0  0
 18 51  1  0  0  0  0
 18102  1  0  0  0  0
 19 53  1  0  0  0  0
 19104  1  0  0  0  0
 20 56  1  0  0  0  0
 20105  1  0  0  0  0
 21 58  1  0  0  0  0
 21106  1  0  0  0  0
 22 23  1  0  0  0  0
 22 25  1  0  0  0  0
 22 59  1  0  0  0  0
 23 24  1  0  0  0  0
 23 60  1  0  0  0  0
 24 29  1  0  0  0  0
 24 61  1  0  0  0  0
 25 26  1  0  0  0  0
 25 62  1  0  0  0  0
 26 63  1  0  0  0  0
 27 28  1  0  0  0  0
 27 64  1  0  0  0  0
 28 30  1  0  0  0  0
 28 65  1  0  0  0  0
 29 66  1  0  0  0  0
 29 67  1  0  0  0  0
 30 31  1  0  0  0  0
 30 68  1  0  0  0  0
 31 32  1  0  0  0  0
 31 69  1  0  0  0  0
 32 38  1  0  0  0  0
 32 70  1  0  0  0  0
 33 34  1  0  0  0  0
 33 71  1  0  0  0  0
 34 35  1  0  0  0  0
 34 72  1  0  0  0  0
 35 36  1  0  0  0  0
 35 73  1  0  0  0  0
 36 37  1  0  0  0  0
 36 74  1  0  0  0  0
 37 40  1  0  0  0  0
 37 75  1  0  0  0  0
 38 76  1  0  0  0  0
 38 77  1  0  0  0  0
 38 78  1  0  0  0  0
 39 43  1  0  0  0  0
 39 80  1  0  0  0  0
 39 81  1  0  0  0  0
 40 82  1  0  0  0  0
 40 83  1  0  0  0  0
 41 45  1  0  0  0  0
 42 44  1  0  0  0  0
 43 46  1  0  0  0  0
 43 88  1  0  0  0  0
 43 89  1  0  0  0  0
 44 91  1  0  0  0  0
 44 92  1  0  0  0  0
 44 93  1  0  0  0  0
 45 47  2  0  0  0  0
 45 94  1  0  0  0  0
 46 48  2  0  0  0  0
 46 49  1  0  0  0  0
 47 50  1  0  0  0  0
 47 96  1  0  0  0  0
 48 51  1  0  0  0  0
 48 97  1  0  0  0  0
 49 52  2  0  0  0  0
 49 98  1  0  0  0  0
 50 54  2  0  0  0  0
 50 55  1  0  0  0  0
 51 53  2  0  0  0  0
 52 53  1  0  0  0  0
 52 99  1  0  0  0  0
 54 56  1  0  0  0  0
 54100  1  0  0  0  0
 55 57  2  0  0  0  0
 55101  1  0  0  0  0
 56 58  2  0  0  0  0
 57 58  1  0  0  0  0
 57103  1  0  0  0  0
M  END
> <PUBCHEM_COMPOUND_CID>
127258928

> <PUBCHEM_COMPOUND_CANONICALIZED>
1

> <PUBCHEM_CACTVS_COMPLEXITY>
1340

> <PUBCHEM_CACTVS_HBOND_ACCEPTOR>
21

> <PUBCHEM_CACTVS_HBOND_DONOR>
11

> <PUBCHEM_CACTVS_ROTATABLE_BOND>
16

> <PUBCHEM_CACTVS_SUBSKEYS>
AAADcfB8PgAAAAAAAAAAAAAAAAAAAAAAAAA0aJECAAAAAAABQAAAGgAACAAADBSwmAMyDoAABgCIAiDSCAACAAAgIAAIiAAGiMgZNiKCMRKicAElwBEPuYfA4LwOIAABAAAAQABAAAIAAACAAAAAAAAAAA==

> <PUBCHEM_IUPAC_OPENEYE_NAME>
[5-acetoxy-6-[2-(3,4-dihydroxyphenyl)ethoxy]-2-[[3,4,5-trihydroxy-6-(hydroxymethyl)tetrahydropyran-2-yl]oxymethyl]-4-(3,4,5-trihydroxy-6-methyl-tetrahydropyran-2-yl)oxy-tetrahydropyran-3-yl] (E)-3-(3,4-dihydroxyphenyl)prop-2-enoate

> <PUBCHEM_IUPAC_CAS_NAME>
(E)-3-(3,4-dihydroxyphenyl)-2-propenoic acid [5-acetyloxy-6-[2-(3,4-dihydroxyphenyl)ethoxy]-2-[[3,4,5-trihydroxy-6-(hydroxymethyl)-2-oxanyl]oxymethyl]-4-[(3,4,5-trihydroxy-6-methyl-2-oxanyl)oxy]-3-oxanyl] ester

> <PUBCHEM_IUPAC_NAME_MARKUP>
[5-acetyloxy-6-[2-(3,4-dihydroxyphenyl)ethoxy]-2-[[3,4,5-trihydroxy-6-(hydroxymethyl)oxan-2-yl]oxymethyl]-4-(3,4,5-trihydroxy-6-methyloxan-2-yl)oxyoxan-3-yl] (<I>E</I>)-3-(3,4-dihydroxyphenyl)prop-2-enoate

> <PUBCHEM_IUPAC_NAME>
[5-acetyloxy-6-[2-(3,4-dihydroxyphenyl)ethoxy]-2-[[3,4,5-trihydroxy-6-(hydroxymethyl)oxan-2-yl]oxymethyl]-4-(3,4,5-trihydroxy-6-methyloxan-2-yl)oxyoxan-3-yl] (E)-3-(3,4-dihydroxyphenyl)prop-2-enoate

> <PUBCHEM_IUPAC_SYSTEMATIC_NAME>
[5-acetyloxy-6-[2-[3,4-bis(oxidanyl)phenyl]ethoxy]-2-[[6-(hydroxymethyl)-3,4,5-tris(oxidanyl)oxan-2-yl]oxymethyl]-4-[6-methyl-3,4,5-tris(oxidanyl)oxan-2-yl]oxy-oxan-3-yl] (E)-3-[3,4-bis(oxidanyl)phenyl]prop-2-enoate

> <PUBCHEM_IUPAC_TRADITIONAL_NAME>
(E)-3-(3,4-dihydroxyphenyl)acrylic acid [5-acetoxy-6-[2-(3,4-dihydroxyphenyl)ethoxy]-2-[(3,4,5-trihydroxy-6-methylol-tetrahydropyran-2-yl)oxymethyl]-4-(3,4,5-trihydroxy-6-methyl-tetrahydropyran-2-yl)oxy-tetrahydropyran-3-yl] ester

> <PUBCHEM_IUPAC_INCHI>
InChI=1S/C37H48O21/c1-15-26(45)28(47)31(50)36(53-15)58-33-32(57-25(44)8-5-17-3-6-19(40)21(42)11-17)24(14-52-35-30(49)29(48)27(46)23(13-38)55-35)56-37(34(33)54-16(2)39)51-10-9-18-4-7-20(41)22(43)12-18/h3-8,11-12,15,23-24,26-38,40-43,45-50H,9-10,13-14H2,1-2H3/b8-5+

> <PUBCHEM_IUPAC_INCHIKEY>
KZLDMAIXPXOZCX-VMPITWQZSA-N

> <PUBCHEM_XLOGP3_AA>
-1.5

> <PUBCHEM_EXACT_MASS>
828.268809

> <PUBCHEM_MOLECULAR_FORMULA>
C37H48O21

> <PUBCHEM_MOLECULAR_WEIGHT>
828.8

> <PUBCHEM_OPENEYE_CAN_SMILES>
CC1C(C(C(C(O1)OC2C(C(OC(C2OC(=O)C)OCCC3=CC(=C(C=C3)O)O)COC4C(C(C(C(O4)CO)O)O)O)OC(=O)C=CC5=CC(=C(C=C5)O)O)O)O)O

> <PUBCHEM_OPENEYE_ISO_SMILES>
CC1C(C(C(C(O1)OC2C(C(OC(C2OC(=O)C)OCCC3=CC(=C(C=C3)O)O)COC4C(C(C(C(O4)CO)O)O)O)OC(=O)/C=C/C5=CC(=C(C=C5)O)O)O)O)O

> <PUBCHEM_CACTVS_TPSA>
331

> <PUBCHEM_MONOISOTOPIC_WEIGHT>
828.268809

> <PUBCHEM_TOTAL_CHARGE>
0

> <PUBCHEM_HEAVY_ATOM_COUNT>
58

> <PUBCHEM_ATOM_DEF_STEREO_COUNT>
0

> <PUBCHEM_ATOM_UDEF_STEREO_COUNT>
15

> <PUBCHEM_BOND_DEF_STEREO_COUNT>
1

> <PUBCHEM_BOND_UDEF_STEREO_COUNT>
0

> <PUBCHEM_ISOTOPIC_ATOM_COUNT>
0

> <PUBCHEM_COMPONENT_COUNT>
1

> <PUBCHEM_CACTVS_TAUTO_COUNT>
-1

> <PUBCHEM_COORDINATE_TYPE>
1
5
255

> <PUBCHEM_BONDANNOTATIONS>
22  1  3
27  1  3
30  10  3
31  11  3
34  12  3
35  13  3
36  14  3
24  29  3
32  38  3
37  40  3
23  4  3
46  48  8
46  49  8
48  51  8
49  52  8
33  5  3
50  54  8
50  55  8
51  53  8
52  53  8
54  56  8
55  57  8
56  58  8
57  58  8
25  6  3
26  7  3
28  9  3

$$$$
