11614543
  -OEChem-11232017332D

 94 94  0     1  0  0  0  0  0999 V2000
    2.3426   16.9300    0.0000 O   0  0  0  0  0  0  0  0  0  0  0  0
    2.3426    3.3100    0.0000 O   0  0  0  0  0  0  0  0  0  0  0  0
    4.0747   16.9300    0.0000 O   0  0  0  0  0  0  0  0  0  0  0  0
    4.0747    3.3100    0.0000 O   0  0  0  0  0  0  0  0  0  0  0  0
    2.3426   19.9300    0.0000 O   0  0  0  0  0  0  0  0  0  0  0  0
    0.6106   18.9300    0.0000 O   0  0  0  0  0  0  0  0  0  0  0  0
    2.3426    0.3100    0.0000 O   0  0  0  0  0  0  0  0  0  0  0  0
    0.6106    1.3100    0.0000 O   0  0  0  0  0  0  0  0  0  0  0  0
    4.0747   18.9300    0.0000 O   0  0  0  0  0  0  0  0  0  0  0  0
    4.0747    1.3100    0.0000 O   0  0  0  0  0  0  0  0  0  0  0  0
    0.6106   15.9300    0.0000 O   0  0  0  0  0  0  0  0  0  0  0  0
    0.6106    4.3100    0.0000 O   0  0  0  0  0  0  0  0  0  0  0  0
    5.8067   15.9300    0.0000 O   0  0  0  0  0  0  0  0  0  0  0  0
    5.8067    4.3100    0.0000 O   0  0  0  0  0  0  0  0  0  0  0  0
    4.0747   13.9300    0.0000 O   0  0  0  0  0  0  0  0  0  0  0  0
    4.0747    6.3100    0.0000 O   0  0  0  0  0  0  0  0  0  0  0  0
    6.6728   14.4300    0.0000 O   0  0  0  0  0  0  0  0  0  0  0  0
    6.6728    5.8100    0.0000 O   0  0  0  0  0  0  0  0  0  0  0  0
    4.9407   12.4300    0.0000 O   0  0  0  0  0  0  0  0  0  0  0  0
    4.9407    7.8100    0.0000 O   0  0  0  0  0  0  0  0  0  0  0  0
    6.6728   11.4300    0.0000 O   0  0  0  0  0  0  0  0  0  0  0  0
    6.6728    8.8100    0.0000 O   0  0  0  0  0  0  0  0  0  0  0  0
    2.3426   18.9300    0.0000 C   0  0  1  0  0  0  0  0  0  0  0  0
    1.4766   18.4300    0.0000 C   0  0  1  0  0  0  0  0  0  0  0  0
    2.3426    1.3100    0.0000 C   0  0  1  0  0  0  0  0  0  0  0  0
    1.4766    1.8100    0.0000 C   0  0  1  0  0  0  0  0  0  0  0  0
    3.2087   18.4300    0.0000 C   0  0  2  0  0  0  0  0  0  0  0  0
    3.2087    1.8100    0.0000 C   0  0  2  0  0  0  0  0  0  0  0  0
    1.4766   17.4300    0.0000 C   0  0  1  0  0  0  0  0  0  0  0  0
    1.4766    2.8100    0.0000 C   0  0  1  0  0  0  0  0  0  0  0  0
    3.2087   17.4300    0.0000 C   0  0  2  0  0  0  0  0  0  0  0  0
    3.2087    2.8100    0.0000 C   0  0  2  0  0  0  0  0  0  0  0  0
    0.6106   16.9300    0.0000 C   0  0  0  0  0  0  0  0  0  0  0  0
    0.6106    3.3100    0.0000 C   0  0  0  0  0  0  0  0  0  0  0  0
    4.0747   15.9300    0.0000 C   0  0  0  0  0  0  0  0  0  0  0  0
    4.0747    4.3100    0.0000 C   0  0  0  0  0  0  0  0  0  0  0  0
    4.9407   15.4300    0.0000 C   0  0  2  0  0  0  0  0  0  0  0  0
    4.9407    4.8100    0.0000 C   0  0  2  0  0  0  0  0  0  0  0  0
    4.9407   14.4300    0.0000 C   0  0  2  0  0  0  0  0  0  0  0  0
    4.9407    5.8100    0.0000 C   0  0  2  0  0  0  0  0  0  0  0  0
    5.8067   13.9300    0.0000 C   0  0  1  0  0  0  0  0  0  0  0  0
    5.8067    6.3100    0.0000 C   0  0  1  0  0  0  0  0  0  0  0  0
    5.8067   12.9300    0.0000 C   0  0  2  0  0  0  0  0  0  0  0  0
    5.8067    7.3100    0.0000 C   0  0  1  0  0  0  0  0  0  0  0  0
    6.6728   12.4300    0.0000 C   0  0  0  0  0  0  0  0  0  0  0  0
    6.6728    7.8100    0.0000 C   0  0  0  0  0  0  0  0  0  0  0  0
    1.8057   19.2400    0.0000 H   0  0  0  0  0  0  0  0  0  0  0  0
    1.4766   19.0500    0.0000 H   0  0  0  0  0  0  0  0  0  0  0  0
    1.8057    1.0000    0.0000 H   0  0  0  0  0  0  0  0  0  0  0  0
    1.4766    1.1900    0.0000 H   0  0  0  0  0  0  0  0  0  0  0  0
    3.2087   19.0500    0.0000 H   0  0  0  0  0  0  0  0  0  0  0  0
    3.2087    1.1900    0.0000 H   0  0  0  0  0  0  0  0  0  0  0  0
    1.4766   16.8100    0.0000 H   0  0  0  0  0  0  0  0  0  0  0  0
    1.4766    3.4300    0.0000 H   0  0  0  0  0  0  0  0  0  0  0  0
    3.2087   16.8100    0.0000 H   0  0  0  0  0  0  0  0  0  0  0  0
    3.2087    3.4300    0.0000 H   0  0  0  0  0  0  0  0  0  0  0  0
    0.3985   17.5126    0.0000 H   0  0  0  0  0  0  0  0  0  0  0  0
    0.0000   16.8223    0.0000 H   0  0  0  0  0  0  0  0  0  0  0  0
    0.0000    3.4177    0.0000 H   0  0  0  0  0  0  0  0  0  0  0  0
    0.3985    2.7274    0.0000 H   0  0  0  0  0  0  0  0  0  0  0  0
    3.4641   16.0377    0.0000 H   0  0  0  0  0  0  0  0  0  0  0  0
    3.8626   15.3474    0.0000 H   0  0  0  0  0  0  0  0  0  0  0  0
    3.8626    4.8926    0.0000 H   0  0  0  0  0  0  0  0  0  0  0  0
    3.4641    4.2023    0.0000 H   0  0  0  0  0  0  0  0  0  0  0  0
    5.4776   15.1200    0.0000 H   0  0  0  0  0  0  0  0  0  0  0  0
    4.9407    4.1900    0.0000 H   0  0  0  0  0  0  0  0  0  0  0  0
    4.4038   14.7400    0.0000 H   0  0  0  0  0  0  0  0  0  0  0  0
    4.4038    5.5000    0.0000 H   0  0  0  0  0  0  0  0  0  0  0  0
    2.8796   20.2400    0.0000 H   0  0  0  0  0  0  0  0  0  0  0  0
    0.0736   18.6200    0.0000 H   0  0  0  0  0  0  0  0  0  0  0  0
    1.8057    0.0000    0.0000 H   0  0  0  0  0  0  0  0  0  0  0  0
    0.0736    1.6200    0.0000 H   0  0  0  0  0  0  0  0  0  0  0  0
    4.6116   18.6200    0.0000 H   0  0  0  0  0  0  0  0  0  0  0  0
    4.6116    1.6200    0.0000 H   0  0  0  0  0  0  0  0  0  0  0  0
    6.3437   13.6200    0.0000 H   0  0  0  0  0  0  0  0  0  0  0  0
    6.3437    6.6200    0.0000 H   0  0  0  0  0  0  0  0  0  0  0  0
    5.2698   13.2400    0.0000 H   0  0  0  0  0  0  0  0  0  0  0  0
    5.2698    7.0000    0.0000 H   0  0  0  0  0  0  0  0  0  0  0  0
    0.0736   15.6200    0.0000 H   0  0  0  0  0  0  0  0  0  0  0  0
    0.0736    4.6200    0.0000 H   0  0  0  0  0  0  0  0  0  0  0  0
    6.3437   15.6200    0.0000 H   0  0  0  0  0  0  0  0  0  0  0  0
    6.3437    4.6200    0.0000 H   0  0  0  0  0  0  0  0  0  0  0  0
    4.0747   13.3100    0.0000 H   0  0  0  0  0  0  0  0  0  0  0  0
    4.0747    6.9300    0.0000 H   0  0  0  0  0  0  0  0  0  0  0  0
    7.2833   12.3223    0.0000 H   0  0  0  0  0  0  0  0  0  0  0  0
    6.8848   13.0126    0.0000 H   0  0  0  0  0  0  0  0  0  0  0  0
    6.8848    7.2274    0.0000 H   0  0  0  0  0  0  0  0  0  0  0  0
    7.2833    7.9177    0.0000 H   0  0  0  0  0  0  0  0  0  0  0  0
    7.2097   14.1200    0.0000 H   0  0  0  0  0  0  0  0  0  0  0  0
    7.2097    6.1200    0.0000 H   0  0  0  0  0  0  0  0  0  0  0  0
    4.9407   11.8100    0.0000 H   0  0  0  0  0  0  0  0  0  0  0  0
    4.9407    8.4300    0.0000 H   0  0  0  0  0  0  0  0  0  0  0  0
    7.2097   11.1200    0.0000 H   0  0  0  0  0  0  0  0  0  0  0  0
    7.2097    9.1200    0.0000 H   0  0  0  0  0  0  0  0  0  0  0  0
  1 29  1  0  0  0  0
  1 31  1  0  0  0  0
  2 30  1  0  0  0  0
  2 32  1  0  0  0  0
 31  3  1  1  0  0  0
  3 35  1  0  0  0  0
 32  4  1  6  0  0  0
  4 36  1  0  0  0  0
 23  5  1  6  0  0  0
  5 69  1  0  0  0  0
 24  6  1  1  0  0  0
  6 70  1  0  0  0  0
 25  7  1  1  0  0  0
  7 71  1  0  0  0  0
 26  8  1  6  0  0  0
  8 72  1  0  0  0  0
 27  9  1  1  0  0  0
  9 73  1  0  0  0  0
 28 10  1  6  0  0  0
 10 74  1  0  0  0  0
 11 33  1  0  0  0  0
 11 79  1  0  0  0  0
 12 34  1  0  0  0  0
 12 80  1  0  0  0  0
 37 13  1  1  0  0  0
 13 81  1  0  0  0  0
 38 14  1  6  0  0  0
 14 82  1  0  0  0  0
 39 15  1  6  0  0  0
 15 83  1  0  0  0  0
 40 16  1  1  0  0  0
 16 84  1  0  0  0  0
 41 17  1  6  0  0  0
 17 89  1  0  0  0  0
 42 18  1  1  0  0  0
 18 90  1  0  0  0  0
 43 19  1  6  0  0  0
 19 91  1  0  0  0  0
 44 20  1  6  0  0  0
 20 92  1  0  0  0  0
 21 45  1  0  0  0  0
 21 93  1  0  0  0  0
 22 46  1  0  0  0  0
 22 94  1  0  0  0  0
 23 24  1  0  0  0  0
 23 27  1  0  0  0  0
 23 47  1  0  0  0  0
 24 29  1  0  0  0  0
 24 48  1  0  0  0  0
 25 26  1  0  0  0  0
 25 28  1  0  0  0  0
 25 49  1  0  0  0  0
 26 30  1  0  0  0  0
 26 50  1  0  0  0  0
 27 31  1  0  0  0  0
 27 51  1  0  0  0  0
 28 32  1  0  0  0  0
 28 52  1  0  0  0  0
 29 33  1  6  0  0  0
 29 53  1  0  0  0  0
 30 34  1  1  0  0  0
 30 54  1  0  0  0  0
 31 55  1  0  0  0  0
 32 56  1  0  0  0  0
 33 57  1  0  0  0  0
 33 58  1  0  0  0  0
 34 59  1  0  0  0  0
 34 60  1  0  0  0  0
 35 37  1  0  0  0  0
 35 61  1  0  0  0  0
 35 62  1  0  0  0  0
 36 38  1  0  0  0  0
 36 63  1  0  0  0  0
 36 64  1  0  0  0  0
 37 39  1  0  0  0  0
 37 65  1  0  0  0  0
 38 40  1  0  0  0  0
 38 66  1  0  0  0  0
 39 41  1  0  0  0  0
 39 67  1  0  0  0  0
 40 42  1  0  0  0  0
 40 68  1  0  0  0  0
 41 43  1  0  0  0  0
 41 75  1  0  0  0  0
 42 44  1  0  0  0  0
 42 76  1  0  0  0  0
 43 45  1  0  0  0  0
 43 77  1  0  0  0  0
 44 46  1  0  0  0  0
 44 78  1  0  0  0  0
 45 85  1  0  0  0  0
 45 86  1  0  0  0  0
 46 87  1  0  0  0  0
 46 88  1  0  0  0  0
M  END
> <PUBCHEM_COMPOUND_CID>
11614543

> <PUBCHEM_COMPOUND_CANONICALIZED>
1

> <PUBCHEM_CACTVS_COMPLEXITY>
343

> <PUBCHEM_CACTVS_HBOND_ACCEPTOR>
22

> <PUBCHEM_CACTVS_HBOND_DONOR>
18

> <PUBCHEM_CACTVS_ROTATABLE_BOND>
16

> <PUBCHEM_CACTVS_SUBSKEYS>
AAADcfB4PgAAAAAAAAAAAAAAAAAAAAAAAAAkSAAAAAAAAAAAAAAAGgAACAAACBSwgAMACAAABgAAAAAAAAAAAAAAAAAAAAAAAAAREAIAAAAiQAAFAAAHAAHAYAwAAAAAAAAAAAAAAAAAAAAAAAAAAAAAAA==

> <PUBCHEM_IUPAC_OPENEYE_NAME>
(2S,3R,4R,5R)-6-[(2S,3R,4S,5S,6R)-3,4,5-trihydroxy-6-(hydroxymethyl)tetrahydropyran-2-yl]oxyhexane-1,2,3,4,5-pentol;(2R,3R,4R,5R)-6-[(2S,3R,4S,5S,6R)-3,4,5-trihydroxy-6-(hydroxymethyl)tetrahydropyran-2-yl]oxyhexane-1,2,3,4,5-pentol

> <PUBCHEM_IUPAC_CAS_NAME>
(2S,3R,4R,5R)-6-[[(2S,3R,4S,5S,6R)-3,4,5-trihydroxy-6-(hydroxymethyl)-2-oxanyl]oxy]hexane-1,2,3,4,5-pentol;(2R,3R,4R,5R)-6-[[(2S,3R,4S,5S,6R)-3,4,5-trihydroxy-6-(hydroxymethyl)-2-oxanyl]oxy]hexane-1,2,3,4,5-pentol

> <PUBCHEM_IUPAC_NAME_MARKUP>
(2<I>S</I>,3<I>R</I>,4<I>R</I>,5<I>R</I>)-6-[(2<I>S</I>,3<I>R</I>,4<I>S</I>,5<I>S</I>,6<I>R</I>)-3,4,5-trihydroxy-6-(hydroxymethyl)oxan-2-yl]oxyhexane-1,2,3,4,5-pentol;(2<I>R</I>,3<I>R</I>,4<I>R</I>,5<I>R</I>)-6-[(2<I>S</I>,3<I>R</I>,4<I>S</I>,5<I>S</I>,6<I>R</I>)-3,4,5-trihydroxy-6-(hydroxymethyl)oxan-2-yl]oxyhexane-1,2,3,4,5-pentol

> <PUBCHEM_IUPAC_NAME>
(2S,3R,4R,5R)-6-[(2S,3R,4S,5S,6R)-3,4,5-trihydroxy-6-(hydroxymethyl)oxan-2-yl]oxyhexane-1,2,3,4,5-pentol;(2R,3R,4R,5R)-6-[(2S,3R,4S,5S,6R)-3,4,5-trihydroxy-6-(hydroxymethyl)oxan-2-yl]oxyhexane-1,2,3,4,5-pentol

> <PUBCHEM_IUPAC_SYSTEMATIC_NAME>
(2S,3R,4R,5R)-6-[(2S,3R,4S,5S,6R)-6-(hydroxymethyl)-3,4,5-tris(oxidanyl)oxan-2-yl]oxyhexane-1,2,3,4,5-pentol;(2R,3R,4R,5R)-6-[(2S,3R,4S,5S,6R)-6-(hydroxymethyl)-3,4,5-tris(oxidanyl)oxan-2-yl]oxyhexane-1,2,3,4,5-pentol

> <PUBCHEM_IUPAC_TRADITIONAL_NAME>
(2S,3R,4R,5R)-6-[(2S,3R,4S,5S,6R)-3,4,5-trihydroxy-6-methylol-tetrahydropyran-2-yl]oxyhexane-1,2,3,4,5-pentol;(2R,3R,4R,5R)-6-[(2S,3R,4S,5S,6R)-3,4,5-trihydroxy-6-methylol-tetrahydropyran-2-yl]oxyhexane-1,2,3,4,5-pentol

> <PUBCHEM_IUPAC_INCHI>
InChI=1S/2C12H24O11/c2*13-1-4(15)7(17)8(18)5(16)3-22-12-11(21)10(20)9(19)6(2-14)23-12/h2*4-21H,1-3H2/t4-,5+,6+,7+,8+,9+,10-,11+,12-;4-,5-,6-,7-,8-,9-,10+,11-,12+/m01/s1

> <PUBCHEM_IUPAC_INCHIKEY>
RWJWQKXVEITNKS-JSOWRAQNSA-N

> <PUBCHEM_EXACT_MASS>
688.263723

> <PUBCHEM_MOLECULAR_FORMULA>
C24H48O22

> <PUBCHEM_MOLECULAR_WEIGHT>
688.6

> <PUBCHEM_OPENEYE_CAN_SMILES>
C(C1C(C(C(C(O1)OCC(C(C(C(CO)O)O)O)O)O)O)O)O.C(C1C(C(C(C(O1)OCC(C(C(C(CO)O)O)O)O)O)O)O)O

> <PUBCHEM_OPENEYE_ISO_SMILES>
C([C@@H]1[C@H]([C@@H]([C@H]([C@H](O1)OC[C@H]([C@H]([C@@H]([C@@H](CO)O)O)O)O)O)O)O)O.C([C@@H]1[C@H]([C@@H]([C@H]([C@H](O1)OC[C@H]([C@H]([C@@H]([C@H](CO)O)O)O)O)O)O)O)O

> <PUBCHEM_CACTVS_TPSA>
401

> <PUBCHEM_MONOISOTOPIC_WEIGHT>
688.263723

> <PUBCHEM_TOTAL_CHARGE>
0

> <PUBCHEM_HEAVY_ATOM_COUNT>
46

> <PUBCHEM_ATOM_DEF_STEREO_COUNT>
18

> <PUBCHEM_ATOM_UDEF_STEREO_COUNT>
0

> <PUBCHEM_BOND_DEF_STEREO_COUNT>
0

> <PUBCHEM_BOND_UDEF_STEREO_COUNT>
0

> <PUBCHEM_ISOTOPIC_ATOM_COUNT>
0

> <PUBCHEM_COMPONENT_COUNT>
2

> <PUBCHEM_CACTVS_TAUTO_COUNT>
-1

> <PUBCHEM_COORDINATE_TYPE>
1
5
255

> <PUBCHEM_BONDANNOTATIONS>
28  10  6
37  13  5
38  14  6
39  15  6
40  16  5
41  17  6
42  18  5
43  19  6
44  20  6
29  33  6
31  3  5
30  34  5
32  4  6
23  5  6
24  6  5
25  7  5
26  8  6
27  9  5

$$$$
