76535542
  -OEChem-09122010012D

104108  0     1  0  0  0  0  0999 V2000
    8.2617   -0.3291    0.0000 O   0  0  0  0  0  0  0  0  0  0  0  0
    6.1613   -0.1836    0.0000 O   0  0  0  0  0  0  0  0  0  0  0  0
    8.9307    0.9342    0.0000 O   0  0  0  0  0  0  0  0  0  0  0  0
    6.2874    2.2778    0.0000 O   0  0  0  0  0  0  0  0  0  0  0  0
    8.8976   -0.4553    0.0000 O   0  0  0  0  0  0  0  0  0  0  0  0
    7.1253    3.3106    0.0000 O   0  0  0  0  0  0  0  0  0  0  0  0
    4.1506    0.9253    0.0000 O   0  0  0  0  0  0  0  0  0  0  0  0
    5.3105    3.0709    0.0000 O   0  0  0  0  0  0  0  0  0  0  0  0
    8.4616    3.1843    0.0000 O   0  0  0  0  0  0  0  0  0  0  0  0
    7.1896   -3.5913    0.0000 O   0  0  0  0  0  0  0  0  0  0  0  0
    6.1048   -1.9147    0.0000 O   0  0  0  0  0  0  0  0  0  0  0  0
    9.2330    2.6396    0.0000 O   0  0  0  0  0  0  0  0  0  0  0  0
   10.0717    0.8180    0.0000 O   0  0  0  0  0  0  0  0  0  0  0  0
    5.4686    3.8160    0.0000 O   0  0  0  0  0  0  0  0  0  0  0  0
    2.4555    0.4914    0.0000 O   0  0  0  0  0  0  0  0  0  0  0  0
    3.8419    2.1527    0.0000 O   0  0  0  0  0  0  0  0  0  0  0  0
    7.6071    4.6910    0.0000 O   0  0  0  0  0  0  0  0  0  0  0  0
    6.1493   -4.9980    0.0000 O   0  0  0  0  0  0  0  0  0  0  0  0
    5.6793   -2.3682    0.0000 N   0  0  0  0  0  0  0  0  0  0  0  0
    7.5763    0.6896    0.0000 C   0  0  3  0  0  0  0  0  0  0  0  0
    7.5840    1.6910    0.0000 C   0  0  3  0  0  0  0  0  0  0  0  0
    7.5163   -1.1472    0.0000 C   0  0  3  0  0  0  0  0  0  0  0  0
    7.1608   -0.2162    0.0000 C   0  0  3  0  0  0  0  0  0  0  0  0
    6.5129    1.3035    0.0000 C   0  0  3  0  0  0  0  0  0  0  0  0
    7.9457    0.7614    0.0000 C   0  0  3  0  0  0  0  0  0  0  0  0
    8.4299   -1.5454    0.0000 C   0  0  3  0  0  0  0  0  0  0  0  0
    7.9219   -0.2358    0.0000 C   0  0  3  0  0  0  0  0  0  0  0  0
    6.8335    2.3541    0.0000 C   0  0  3  0  0  0  0  0  0  0  0  0
    5.2880    1.3878    0.0000 C   0  0  3  0  0  0  0  0  0  0  0  0
    5.8406    2.2230    0.0000 C   0  0  3  0  0  0  0  0  0  0  0  0
    7.5917    2.6910    0.0000 C   0  0  0  0  0  0  0  0  0  0  0  0
    7.3535    2.0883    0.0000 C   0  0  0  0  0  0  0  0  0  0  0  0
    8.0465   -2.7118    0.0000 C   0  0  0  0  0  0  0  0  0  0  0  0
    9.4258   -1.6353    0.0000 C   0  0  0  0  0  0  0  0  0  0  0  0
    5.6333   -1.0328    0.0000 C   0  0  0  0  0  0  0  0  0  0  0  0
    9.5742    1.6996    0.0000 C   0  0  0  0  0  0  0  0  0  0  0  0
    9.8522   -0.1576    0.0000 C   0  0  0  0  0  0  0  0  0  0  0  0
    6.4429    4.0416    0.0000 C   0  0  0  0  0  0  0  0  0  0  0  0
    3.3320    0.0101    0.0000 C   0  0  0  0  0  0  0  0  0  0  0  0
    4.3111    3.0357    0.0000 C   0  0  0  0  0  0  0  0  0  0  0  0
    8.4693    4.1843    0.0000 C   0  0  0  0  0  0  0  0  0  0  0  0
    2.9989   -1.1717    0.0000 C   0  0  3  0  0  0  0  0  0  0  0  0
    4.6339   -1.0002    0.0000 C   0  0  0  0  0  0  0  0  0  0  0  0
    6.0335   -4.0047    0.0000 C   0  0  0  0  0  0  0  0  0  0  0  0
   10.5588    1.5251    0.0000 C   0  0  0  0  0  0  0  0  0  0  0  0
   10.5874   -0.8355    0.0000 C   0  0  0  0  0  0  0  0  0  0  0  0
    6.7347    4.9980    0.0000 C   0  0  0  0  0  0  0  0  0  0  0  0
    3.2189   -2.3797    0.0000 C   0  0  3  0  0  0  0  0  0  0  0  0
    3.7810    3.8837    0.0000 C   0  0  0  0  0  0  0  0  0  0  0  0
    9.3391    4.6776    0.0000 C   0  0  0  0  0  0  0  0  0  0  0  0
    4.8133   -3.8682    0.0000 C   0  0  0  0  0  0  0  0  0  0  0  0
    2.0000   -1.1244    0.0000 C   0  0  0  0  0  0  0  0  0  0  0  0
    3.9472   -3.3682    0.0000 C   0  0  0  0  0  0  0  0  0  0  0  0
    2.3008   -2.7761    0.0000 C   0  0  0  0  0  0  0  0  0  0  0  0
    5.6793   -3.3682    0.0000 C   0  0  0  0  0  0  0  0  0  0  0  0
    3.9472   -2.3682    0.0000 C   0  0  0  0  0  0  0  0  0  0  0  0
    4.8133   -1.8682    0.0000 C   0  0  0  0  0  0  0  0  0  0  0  0
    7.0679   -1.5753    0.0000 H   0  0  0  0  0  0  0  0  0  0  0  0
    6.8346    0.3110    0.0000 H   0  0  0  0  0  0  0  0  0  0  0  0
    8.2500    1.3016    0.0000 H   0  0  0  0  0  0  0  0  0  0  0  0
    8.2002   -0.7899    0.0000 H   0  0  0  0  0  0  0  0  0  0  0  0
    6.4326    2.8271    0.0000 H   0  0  0  0  0  0  0  0  0  0  0  0
    4.8951    1.8675    0.0000 H   0  0  0  0  0  0  0  0  0  0  0  0
    5.2207    2.2310    0.0000 H   0  0  0  0  0  0  0  0  0  0  0  0
    7.3842    3.2753    0.0000 H   0  0  0  0  0  0  0  0  0  0  0  0
    6.9803    2.5881    0.0000 H   0  0  0  0  0  0  0  0  0  0  0  0
    7.7766    1.6351    0.0000 H   0  0  0  0  0  0  0  0  0  0  0  0
    7.8067    2.5114    0.0000 H   0  0  0  0  0  0  0  0  0  0  0  0
    6.9304    2.5415    0.0000 H   0  0  0  0  0  0  0  0  0  0  0  0
    8.3030   -3.2763    0.0000 H   0  0  0  0  0  0  0  0  0  0  0  0
    7.5164   -2.3904    0.0000 H   0  0  0  0  0  0  0  0  0  0  0  0
    9.3701   -2.2528    0.0000 H   0  0  0  0  0  0  0  0  0  0  0  0
   10.0433   -1.6911    0.0000 H   0  0  0  0  0  0  0  0  0  0  0  0
    9.4816   -1.0178    0.0000 H   0  0  0  0  0  0  0  0  0  0  0  0
    6.4684    2.8708    0.0000 H   0  0  0  0  0  0  0  0  0  0  0  0
    2.5905   -1.6382    0.0000 H   0  0  0  0  0  0  0  0  0  0  0  0
    4.6541   -0.3806    0.0000 H   0  0  0  0  0  0  0  0  0  0  0  0
    4.0142   -0.9800    0.0000 H   0  0  0  0  0  0  0  0  0  0  0  0
    4.6136   -1.6199    0.0000 H   0  0  0  0  0  0  0  0  0  0  0  0
   10.4506    0.9146    0.0000 H   0  0  0  0  0  0  0  0  0  0  0  0
   11.1693    1.4169    0.0000 H   0  0  0  0  0  0  0  0  0  0  0  0
   10.6670    2.1356    0.0000 H   0  0  0  0  0  0  0  0  0  0  0  0
   10.1671   -1.2913    0.0000 H   0  0  0  0  0  0  0  0  0  0  0  0
   11.0432   -1.2558    0.0000 H   0  0  0  0  0  0  0  0  0  0  0  0
   11.0077   -0.3797    0.0000 H   0  0  0  0  0  0  0  0  0  0  0  0
    7.3277    4.8171    0.0000 H   0  0  0  0  0  0  0  0  0  0  0  0
    6.9157    5.5910    0.0000 H   0  0  0  0  0  0  0  0  0  0  0  0
    6.1417    5.1790    0.0000 H   0  0  0  0  0  0  0  0  0  0  0  0
    3.0570   -2.9782    0.0000 H   0  0  0  0  0  0  0  0  0  0  0  0
    4.3067    4.2123    0.0000 H   0  0  0  0  0  0  0  0  0  0  0  0
    3.4523    4.4094    0.0000 H   0  0  0  0  0  0  0  0  0  0  0  0
    3.2553    3.5550    0.0000 H   0  0  0  0  0  0  0  0  0  0  0  0
    9.6450    4.1383    0.0000 H   0  0  0  0  0  0  0  0  0  0  0  0
    9.8784    4.9835    0.0000 H   0  0  0  0  0  0  0  0  0  0  0  0
    9.0333    5.2169    0.0000 H   0  0  0  0  0  0  0  0  0  0  0  0
    2.0293   -0.5051    0.0000 H   0  0  0  0  0  0  0  0  0  0  0  0
    1.3807   -1.0951    0.0000 H   0  0  0  0  0  0  0  0  0  0  0  0
    1.9707   -1.7437    0.0000 H   0  0  0  0  0  0  0  0  0  0  0  0
    2.0550   -2.2069    0.0000 H   0  0  0  0  0  0  0  0  0  0  0  0
    1.7316   -3.0219    0.0000 H   0  0  0  0  0  0  0  0  0  0  0  0
    2.5466   -3.3453    0.0000 H   0  0  0  0  0  0  0  0  0  0  0  0
    6.2162   -3.6782    0.0000 H   0  0  0  0  0  0  0  0  0  0  0  0
    3.4103   -2.0582    0.0000 H   0  0  0  0  0  0  0  0  0  0  0  0
    4.8133   -1.2482    0.0000 H   0  0  0  0  0  0  0  0  0  0  0  0
  1 20  1  0  0  0  0
  1 26  1  0  0  0  0
  2 23  1  0  0  0  0
  2 35  1  0  0  0  0
  3 25  1  0  0  0  0
  3 36  1  0  0  0  0
  4 24  1  0  0  0  0
  4 75  1  0  0  0  0
  5 27  1  0  0  0  0
  5 37  1  0  0  0  0
  6 28  1  0  0  0  0
  6 38  1  0  0  0  0
  7 29  1  0  0  0  0
  7 39  1  0  0  0  0
  8 30  1  0  0  0  0
  8 40  1  0  0  0  0
  9 31  1  0  0  0  0
  9 41  1  0  0  0  0
 10 33  1  0  0  0  0
 10 44  1  0  0  0  0
 11 35  2  0  0  0  0
 12 36  2  0  0  0  0
 13 37  2  0  0  0  0
 14 38  2  0  0  0  0
 15 39  2  0  0  0  0
 16 40  2  0  0  0  0
 17 41  2  0  0  0  0
 18 44  2  0  0  0  0
 19 55  2  0  0  0  0
 19 57  1  0  0  0  0
 20 21  1  0  0  0  0
 20 23  1  0  0  0  0
 20 24  1  0  0  0  0
 21 25  1  0  0  0  0
 21 28  1  0  0  0  0
 21 31  1  0  0  0  0
 22 23  1  0  0  0  0
 22 26  1  0  0  0  0
 22 27  1  0  0  0  0
 22 58  1  0  0  0  0
 23 59  1  0  0  0  0
 24 29  1  0  0  0  0
 24 32  1  0  0  0  0
 25 27  1  0  0  0  0
 25 60  1  0  0  0  0
 26 33  1  0  0  0  0
 26 34  1  0  0  0  0
 27 61  1  0  0  0  0
 28 30  1  0  0  0  0
 28 62  1  0  0  0  0
 29 30  1  0  0  0  0
 29 63  1  0  0  0  0
 30 64  1  0  0  0  0
 31 65  1  0  0  0  0
 31 66  1  0  0  0  0
 32 67  1  0  0  0  0
 32 68  1  0  0  0  0
 32 69  1  0  0  0  0
 33 70  1  0  0  0  0
 33 71  1  0  0  0  0
 34 72  1  0  0  0  0
 34 73  1  0  0  0  0
 34 74  1  0  0  0  0
 35 43  1  0  0  0  0
 36 45  1  0  0  0  0
 37 46  1  0  0  0  0
 38 47  1  0  0  0  0
 39 42  1  0  0  0  0
 40 49  1  0  0  0  0
 41 50  1  0  0  0  0
 42 48  1  0  0  0  0
 42 52  1  0  0  0  0
 42 76  1  0  0  0  0
 43 77  1  0  0  0  0
 43 78  1  0  0  0  0
 43 79  1  0  0  0  0
 44 51  1  0  0  0  0
 45 80  1  0  0  0  0
 45 81  1  0  0  0  0
 45 82  1  0  0  0  0
 46 83  1  0  0  0  0
 46 84  1  0  0  0  0
 46 85  1  0  0  0  0
 47 86  1  0  0  0  0
 47 87  1  0  0  0  0
 47 88  1  0  0  0  0
 48 53  1  0  0  0  0
 48 54  1  0  0  0  0
 48 89  1  0  0  0  0
 49 90  1  0  0  0  0
 49 91  1  0  0  0  0
 49 92  1  0  0  0  0
 50 93  1  0  0  0  0
 50 94  1  0  0  0  0
 50 95  1  0  0  0  0
 51 53  2  0  0  0  0
 51 55  1  0  0  0  0
 52 96  1  0  0  0  0
 52 97  1  0  0  0  0
 52 98  1  0  0  0  0
 53 56  1  0  0  0  0
 54 99  1  0  0  0  0
 54100  1  0  0  0  0
 54101  1  0  0  0  0
 55102  1  0  0  0  0
 56 57  2  0  0  0  0
 56103  1  0  0  0  0
 57104  1  0  0  0  0
M  END
> <PUBCHEM_COMPOUND_CID>
76535542

> <PUBCHEM_COMPOUND_CANONICALIZED>
1

> <PUBCHEM_CACTVS_COMPLEXITY>
1680

> <PUBCHEM_CACTVS_HBOND_ACCEPTOR>
19

> <PUBCHEM_CACTVS_HBOND_DONOR>
1

> <PUBCHEM_CACTVS_ROTATABLE_BOND>
13

> <PUBCHEM_CACTVS_SUBSKEYS>
AAADcfB+PgAAAAAAAAAAAAAAAAAAASAAAAA8YIAABIAAAADBgAAAHgAACAAAD1ThmgY+iJIIFgCoAjD3TACCgCA1AiAI2CE4bNgJJnrAtZmGcYhnwAHL6cfY+f4PgAAAAAAAAADCAAYQADCAAAAAAAAAAA==

> <PUBCHEM_IUPAC_OPENEYE_NAME>
(18,19,21,22,24-pentaacetoxy-25-hydroxy-3,13,14,25-tetramethyl-6,15-dioxo-2,5,16-trioxa-9-azapentacyclo[15.7.1.01,20.03,23.07,12]pentacosa-7(12),8,10-trien-20-yl)methyl acetate

> <PUBCHEM_IUPAC_CAS_NAME>
acetic acid (18,19,21,22,24-pentaacetyloxy-25-hydroxy-3,13,14,25-tetramethyl-6,15-dioxo-2,5,16-trioxa-9-azapentacyclo[15.7.1.01,20.03,23.07,12]pentacosa-7(12),8,10-trien-20-yl)methyl ester

> <PUBCHEM_IUPAC_NAME_MARKUP>
(18,19,21,22,24-pentaacetyloxy-25-hydroxy-3,13,14,25-tetramethyl-6,15-dioxo-2,5,16-trioxa-9-azapentacyclo[15.7.1.0<SUP>1,20</SUP>.0<SUP>3,23</SUP>.0<SUP>7,12</SUP>]pentacosa-7(12),8,10-trien-20-yl)methyl acetate

> <PUBCHEM_IUPAC_NAME>
(18,19,21,22,24-pentaacetyloxy-25-hydroxy-3,13,14,25-tetramethyl-6,15-dioxo-2,5,16-trioxa-9-azapentacyclo[15.7.1.01,20.03,23.07,12]pentacosa-7(12),8,10-trien-20-yl)methyl acetate

> <PUBCHEM_IUPAC_SYSTEMATIC_NAME>
[18,19,21,22,24-pentaacetyloxy-3,13,14,25-tetramethyl-25-oxidanyl-6,15-bis(oxidanylidene)-2,5,16-trioxa-9-azapentacyclo[15.7.1.01,20.03,23.07,12]pentacosa-7(12),8,10-trien-20-yl]methyl ethanoate

> <PUBCHEM_IUPAC_TRADITIONAL_NAME>
acetic acid (18,19,21,22,24-pentaacetoxy-25-hydroxy-6,15-diketo-3,13,14,25-tetramethyl-2,5,16-trioxa-9-azapentacyclo[15.7.1.01,20.03,23.07,12]pentacosa-7(12),8,10-trien-20-yl)methyl ester

> <PUBCHEM_IUPAC_INCHI>
InChI=1S/C38H47NO18/c1-16-17(2)33(46)56-30-28(52-20(5)42)32(55-23(8)45)37(15-49-18(3)40)31(54-22(7)44)27(51-19(4)41)26-29(53-21(6)43)38(37,36(30,10)48)57-35(26,9)14-50-34(47)25-13-39-12-11-24(16)25/h11-13,16-17,26-32,48H,14-15H2,1-10H3

> <PUBCHEM_IUPAC_INCHIKEY>
XVCIECFQBMGYAF-UHFFFAOYSA-N

> <PUBCHEM_XLOGP3_AA>
0.4

> <PUBCHEM_EXACT_MASS>
805.279314

> <PUBCHEM_MOLECULAR_FORMULA>
C38H47NO18

> <PUBCHEM_MOLECULAR_WEIGHT>
805.8

> <PUBCHEM_OPENEYE_CAN_SMILES>
CC1C(C(=O)OC2C(C(C3(C(C(C4C(C3(C2(C)O)OC4(COC(=O)C5=C1C=CN=C5)C)OC(=O)C)OC(=O)C)OC(=O)C)COC(=O)C)OC(=O)C)OC(=O)C)C

> <PUBCHEM_OPENEYE_ISO_SMILES>
CC1C(C(=O)OC2C(C(C3(C(C(C4C(C3(C2(C)O)OC4(COC(=O)C5=C1C=CN=C5)C)OC(=O)C)OC(=O)C)OC(=O)C)COC(=O)C)OC(=O)C)OC(=O)C)C

> <PUBCHEM_CACTVS_TPSA>
253

> <PUBCHEM_MONOISOTOPIC_WEIGHT>
805.279314

> <PUBCHEM_TOTAL_CHARGE>
0

> <PUBCHEM_HEAVY_ATOM_COUNT>
57

> <PUBCHEM_ATOM_DEF_STEREO_COUNT>
0

> <PUBCHEM_ATOM_UDEF_STEREO_COUNT>
13

> <PUBCHEM_BOND_DEF_STEREO_COUNT>
0

> <PUBCHEM_BOND_UDEF_STEREO_COUNT>
0

> <PUBCHEM_ISOTOPIC_ATOM_COUNT>
0

> <PUBCHEM_COMPONENT_COUNT>
1

> <PUBCHEM_CACTVS_TAUTO_COUNT>
-1

> <PUBCHEM_COORDINATE_TYPE>
1
5
255

> <PUBCHEM_BONDANNOTATIONS>
19  55  8
19  57  8
23  2  3
20  23  3
21  31  3
22  27  3
26  34  3
25  3  3
24  4  3
42  52  3
48  54  3
27  5  3
51  53  8
51  55  8
53  56  8
56  57  8
28  6  3
29  7  3
30  8  3

$$$$
