162486
  -OEChem-09122010002D

104108  0     1  0  0  0  0  0999 V2000
    7.0776   -0.4647    0.0000 O   0  0  0  0  0  0  0  0  0  0  0  0
    7.6227    1.6791    0.0000 O   0  0  0  0  0  0  0  0  0  0  0  0
    7.0674    2.7156    0.0000 O   0  0  0  0  0  0  0  0  0  0  0  0
    6.3243   -0.8475    0.0000 O   0  0  0  0  0  0  0  0  0  0  0  0
    8.6816    2.2625    0.0000 O   0  0  0  0  0  0  0  0  0  0  0  0
    5.3236    2.6384    0.0000 O   0  0  0  0  0  0  0  0  0  0  0  0
    3.7195   -0.3392    0.0000 O   0  0  0  0  0  0  0  0  0  0  0  0
    3.7319    1.6733    0.0000 O   0  0  0  0  0  0  0  0  0  0  0  0
    6.5740    3.0761    0.0000 O   0  0  0  0  0  0  0  0  0  0  0  0
    7.9981   -1.8445    0.0000 O   0  0  0  0  0  0  0  0  0  0  0  0
    9.2342    2.5089    0.0000 O   0  0  0  0  0  0  0  0  0  0  0  0
    8.9134    3.2850    0.0000 O   0  0  0  0  0  0  0  0  0  0  0  0
   10.0222    1.1657    0.0000 O   0  0  0  0  0  0  0  0  0  0  0  0
    3.6121    2.3722    0.0000 O   0  0  0  0  0  0  0  0  0  0  0  0
    2.8464   -1.8248    0.0000 O   0  0  0  0  0  0  0  0  0  0  0  0
    2.8473    0.1842    0.0000 O   0  0  0  0  0  0  0  0  0  0  0  0
    6.4794    4.8056    0.0000 O   0  0  0  0  0  0  0  0  0  0  0  0
    8.8570   -3.3384    0.0000 O   0  0  0  0  0  0  0  0  0  0  0  0
    5.4195   -3.3168    0.0000 N   0  0  0  0  0  0  0  0  0  0  0  0
    6.3263    0.1500    0.0000 C   0  0  3  0  0  0  0  0  0  0  0  0
    6.3385    1.1206    0.0000 C   0  0  3  0  0  0  0  0  0  0  0  0
    8.4586    0.6088    0.0000 C   0  0  3  0  0  0  0  0  0  0  0  0
    7.3178    0.7267    0.0000 C   0  0  3  0  0  0  0  0  0  0  0  0
    5.4522   -0.3581    0.0000 C   0  0  3  0  0  0  0  0  0  0  0  0
    7.1048    1.7163    0.0000 C   0  0  3  0  0  0  0  0  0  0  0  0
    8.0266   -0.2604    0.0000 C   0  0  3  0  0  0  0  0  0  0  0  0
    8.0484    1.4885    0.0000 C   0  0  3  0  0  0  0  0  0  0  0  0
    5.4773    1.6503    0.0000 C   0  0  3  0  0  0  0  0  0  0  0  0
    4.5790    0.1516    0.0000 C   0  0  3  0  0  0  0  0  0  0  0  0
    4.5917    1.1626    0.0000 C   0  0  3  0  0  0  0  0  0  0  0  0
    6.2838    2.1191    0.0000 C   0  0  0  0  0  0  0  0  0  0  0  0
    4.5924   -0.8686    0.0000 C   0  0  0  0  0  0  0  0  0  0  0  0
    8.6222   -1.0268    0.0000 C   0  0  0  0  0  0  0  0  0  0  0  0
    9.0217   -0.1609    0.0000 C   0  0  0  0  0  0  0  0  0  0  0  0
    8.6219    1.7183    0.0000 C   0  0  0  0  0  0  0  0  0  0  0  0
    7.9141    3.2477    0.0000 C   0  0  0  0  0  0  0  0  0  0  0  0
    9.6685    2.1010    0.0000 C   0  0  0  0  0  0  0  0  0  0  0  0
    4.3910    2.9994    0.0000 C   0  0  0  0  0  0  0  0  0  0  0  0
    3.7148   -1.3289    0.0000 C   0  0  0  0  0  0  0  0  0  0  0  0
    2.8597    1.1841    0.0000 C   0  0  0  0  0  0  0  0  0  0  0  0
    6.0274    3.9135    0.0000 C   0  0  0  0  0  0  0  0  0  0  0  0
    9.1555    0.8725    0.0000 C   0  0  0  0  0  0  0  0  0  0  0  0
    4.5695   -1.8280    0.0000 C   0  0  3  0  0  0  0  0  0  0  0  0
    7.9934   -2.8342    0.0000 C   0  0  0  0  0  0  0  0  0  0  0  0
    7.8767    4.2470    0.0000 C   0  0  0  0  0  0  0  0  0  0  0  0
   10.3017    2.8750    0.0000 C   0  0  0  0  0  0  0  0  0  0  0  0
    4.2373    3.9875    0.0000 C   0  0  0  0  0  0  0  0  0  0  0  0
    2.0000    1.6948    0.0000 C   0  0  0  0  0  0  0  0  0  0  0  0
    5.0289    3.8589    0.0000 C   0  0  0  0  0  0  0  0  0  0  0  0
    5.4290   -1.3372    0.0000 C   0  0  0  0  0  0  0  0  0  0  0  0
    7.1338   -3.3250    0.0000 C   0  0  0  0  0  0  0  0  0  0  0  0
    3.9778   -2.6341    0.0000 C   0  0  0  0  0  0  0  0  0  0  0  0
    6.2838   -1.8362    0.0000 C   0  0  0  0  0  0  0  0  0  0  0  0
    6.2791   -2.8260    0.0000 C   0  0  0  0  0  0  0  0  0  0  0  0
    7.1291   -4.3148    0.0000 C   0  0  0  0  0  0  0  0  0  0  0  0
    6.2696   -4.8056    0.0000 C   0  0  0  0  0  0  0  0  0  0  0  0
    5.4148   -4.3066    0.0000 C   0  0  0  0  0  0  0  0  0  0  0  0
    9.0785    0.6011    0.0000 H   0  0  0  0  0  0  0  0  0  0  0  0
    6.8345    1.1151    0.0000 H   0  0  0  0  0  0  0  0  0  0  0  0
    7.5847    2.1089    0.0000 H   0  0  0  0  0  0  0  0  0  0  0  0
    8.6636    1.4114    0.0000 H   0  0  0  0  0  0  0  0  0  0  0  0
    4.9208    1.9236    0.0000 H   0  0  0  0  0  0  0  0  0  0  0  0
    5.1186    0.4570    0.0000 H   0  0  0  0  0  0  0  0  0  0  0  0
    4.0509    0.8593    0.0000 H   0  0  0  0  0  0  0  0  0  0  0  0
    5.8103    2.5193    0.0000 H   0  0  0  0  0  0  0  0  0  0  0  0
    6.8994    2.0450    0.0000 H   0  0  0  0  0  0  0  0  0  0  0  0
    4.2759   -0.3355    0.0000 H   0  0  0  0  0  0  0  0  0  0  0  0
    4.0592   -1.1851    0.0000 H   0  0  0  0  0  0  0  0  0  0  0  0
    4.9089   -1.4017    0.0000 H   0  0  0  0  0  0  0  0  0  0  0  0
    9.0809   -1.4439    0.0000 H   0  0  0  0  0  0  0  0  0  0  0  0
    9.0773   -0.6056    0.0000 H   0  0  0  0  0  0  0  0  0  0  0  0
    9.0834   -0.7778    0.0000 H   0  0  0  0  0  0  0  0  0  0  0  0
    9.6386   -0.0992    0.0000 H   0  0  0  0  0  0  0  0  0  0  0  0
    8.9599    0.4560    0.0000 H   0  0  0  0  0  0  0  0  0  0  0  0
    6.8041   -1.2402    0.0000 H   0  0  0  0  0  0  0  0  0  0  0  0
    8.6311    0.5417    0.0000 H   0  0  0  0  0  0  0  0  0  0  0  0
    9.4863    0.3482    0.0000 H   0  0  0  0  0  0  0  0  0  0  0  0
    9.6799    1.2033    0.0000 H   0  0  0  0  0  0  0  0  0  0  0  0
    4.9821   -2.2907    0.0000 H   0  0  0  0  0  0  0  0  0  0  0  0
    8.4963    4.2701    0.0000 H   0  0  0  0  0  0  0  0  0  0  0  0
    7.8536    4.8665    0.0000 H   0  0  0  0  0  0  0  0  0  0  0  0
    7.2572    4.2238    0.0000 H   0  0  0  0  0  0  0  0  0  0  0  0
   10.7816    2.4824    0.0000 H   0  0  0  0  0  0  0  0  0  0  0  0
   10.6943    3.3549    0.0000 H   0  0  0  0  0  0  0  0  0  0  0  0
    9.8219    3.2676    0.0000 H   0  0  0  0  0  0  0  0  0  0  0  0
    4.8499    4.0828    0.0000 H   0  0  0  0  0  0  0  0  0  0  0  0
    4.1420    4.6001    0.0000 H   0  0  0  0  0  0  0  0  0  0  0  0
    3.6246    3.8922    0.0000 H   0  0  0  0  0  0  0  0  0  0  0  0
    2.3166    2.2279    0.0000 H   0  0  0  0  0  0  0  0  0  0  0  0
    1.4670    2.0115    0.0000 H   0  0  0  0  0  0  0  0  0  0  0  0
    1.6834    1.1618    0.0000 H   0  0  0  0  0  0  0  0  0  0  0  0
    4.9951    4.4780    0.0000 H   0  0  0  0  0  0  0  0  0  0  0  0
    4.4099    3.8250    0.0000 H   0  0  0  0  0  0  0  0  0  0  0  0
    5.0628    3.2398    0.0000 H   0  0  0  0  0  0  0  0  0  0  0  0
    5.8299   -0.8642    0.0000 H   0  0  0  0  0  0  0  0  0  0  0  0
    5.0328   -0.8603    0.0000 H   0  0  0  0  0  0  0  0  0  0  0  0
    3.4780   -2.2672    0.0000 H   0  0  0  0  0  0  0  0  0  0  0  0
    3.6109   -3.1338    0.0000 H   0  0  0  0  0  0  0  0  0  0  0  0
    4.4776   -3.0010    0.0000 H   0  0  0  0  0  0  0  0  0  0  0  0
    6.8939   -1.9468    0.0000 H   0  0  0  0  0  0  0  0  0  0  0  0
    6.4987   -1.2546    0.0000 H   0  0  0  0  0  0  0  0  0  0  0  0
    7.6645   -4.6274    0.0000 H   0  0  0  0  0  0  0  0  0  0  0  0
    6.2666   -5.4256    0.0000 H   0  0  0  0  0  0  0  0  0  0  0  0
    4.8764   -4.6140    0.0000 H   0  0  0  0  0  0  0  0  0  0  0  0
  1 20  1  0  0  0  0
  1 26  1  0  0  0  0
  2 23  1  0  0  0  0
  2 35  1  0  0  0  0
  3 25  1  0  0  0  0
  3 36  1  0  0  0  0
  4 24  1  0  0  0  0
  4 75  1  0  0  0  0
  5 27  1  0  0  0  0
  5 37  1  0  0  0  0
  6 28  1  0  0  0  0
  6 38  1  0  0  0  0
  7 29  1  0  0  0  0
  7 39  1  0  0  0  0
  8 30  1  0  0  0  0
  8 40  1  0  0  0  0
  9 31  1  0  0  0  0
  9 41  1  0  0  0  0
 10 33  1  0  0  0  0
 10 44  1  0  0  0  0
 11 35  2  0  0  0  0
 12 36  2  0  0  0  0
 13 37  2  0  0  0  0
 14 38  2  0  0  0  0
 15 39  2  0  0  0  0
 16 40  2  0  0  0  0
 17 41  2  0  0  0  0
 18 44  2  0  0  0  0
 19 54  1  0  0  0  0
 19 57  2  0  0  0  0
 20 21  1  0  0  0  0
 20 23  1  0  0  0  0
 20 24  1  0  0  0  0
 21 25  1  0  0  0  0
 21 28  1  0  0  0  0
 21 31  1  0  0  0  0
 22 23  1  0  0  0  0
 22 26  1  0  0  0  0
 22 27  1  0  0  0  0
 22 58  1  0  0  0  0
 23 59  1  0  0  0  0
 24 29  1  0  0  0  0
 24 32  1  0  0  0  0
 25 27  1  0  0  0  0
 25 60  1  0  0  0  0
 26 33  1  0  0  0  0
 26 34  1  0  0  0  0
 27 61  1  0  0  0  0
 28 30  1  0  0  0  0
 28 62  1  0  0  0  0
 29 30  1  0  0  0  0
 29 63  1  0  0  0  0
 30 64  1  0  0  0  0
 31 65  1  0  0  0  0
 31 66  1  0  0  0  0
 32 67  1  0  0  0  0
 32 68  1  0  0  0  0
 32 69  1  0  0  0  0
 33 70  1  0  0  0  0
 33 71  1  0  0  0  0
 34 72  1  0  0  0  0
 34 73  1  0  0  0  0
 34 74  1  0  0  0  0
 35 42  1  0  0  0  0
 36 45  1  0  0  0  0
 37 46  1  0  0  0  0
 38 47  1  0  0  0  0
 39 43  1  0  0  0  0
 40 48  1  0  0  0  0
 41 49  1  0  0  0  0
 42 76  1  0  0  0  0
 42 77  1  0  0  0  0
 42 78  1  0  0  0  0
 43 50  1  0  0  0  0
 43 52  1  0  0  0  0
 43 79  1  0  0  0  0
 44 51  1  0  0  0  0
 45 80  1  0  0  0  0
 45 81  1  0  0  0  0
 45 82  1  0  0  0  0
 46 83  1  0  0  0  0
 46 84  1  0  0  0  0
 46 85  1  0  0  0  0
 47 86  1  0  0  0  0
 47 87  1  0  0  0  0
 47 88  1  0  0  0  0
 48 89  1  0  0  0  0
 48 90  1  0  0  0  0
 48 91  1  0  0  0  0
 49 92  1  0  0  0  0
 49 93  1  0  0  0  0
 49 94  1  0  0  0  0
 50 53  1  0  0  0  0
 50 95  1  0  0  0  0
 50 96  1  0  0  0  0
 51 54  2  0  0  0  0
 51 55  1  0  0  0  0
 52 97  1  0  0  0  0
 52 98  1  0  0  0  0
 52 99  1  0  0  0  0
 53 54  1  0  0  0  0
 53100  1  0  0  0  0
 53101  1  0  0  0  0
 55 56  2  0  0  0  0
 55102  1  0  0  0  0
 56 57  1  0  0  0  0
 56103  1  0  0  0  0
 57104  1  0  0  0  0
M  END
> <PUBCHEM_COMPOUND_CID>
162486

> <PUBCHEM_COMPOUND_CANONICALIZED>
1

> <PUBCHEM_CACTVS_COMPLEXITY>
1670

> <PUBCHEM_CACTVS_HBOND_ACCEPTOR>
19

> <PUBCHEM_CACTVS_HBOND_DONOR>
1

> <PUBCHEM_CACTVS_ROTATABLE_BOND>
13

> <PUBCHEM_CACTVS_SUBSKEYS>
AAADcfB+PgAAAAAAAAAAAAAAAAAAASAAAAA8YIAABIAAAADBgAAAHgAACAAAD1zhngY+iJIIFgCoAzT3TACCgCA1AiAI2CE4bNgJJvrAtZmGcYhnwAHL6cfY+f+fgAAAAAAAAADCAAYQADCAAAAAAAAAAA==

> <PUBCHEM_IUPAC_OPENEYE_NAME>
(19,20,22,23,25-pentaacetoxy-26-hydroxy-3,15,26-trimethyl-6,16-dioxo-2,5,17-trioxa-11-azapentacyclo[16.7.1.01,21.03,24.07,12]hexacosa-7(12),8,10-trien-21-yl)methyl acetate

> <PUBCHEM_IUPAC_CAS_NAME>
acetic acid (19,20,22,23,25-pentaacetyloxy-26-hydroxy-3,15,26-trimethyl-6,16-dioxo-2,5,17-trioxa-11-azapentacyclo[16.7.1.01,21.03,24.07,12]hexacosa-7(12),8,10-trien-21-yl)methyl ester

> <PUBCHEM_IUPAC_NAME_MARKUP>
(19,20,22,23,25-pentaacetyloxy-26-hydroxy-3,15,26-trimethyl-6,16-dioxo-2,5,17-trioxa-11-azapentacyclo[16.7.1.0<SUP>1,21</SUP>.0<SUP>3,24</SUP>.0<SUP>7,12</SUP>]hexacosa-7(12),8,10-trien-21-yl)methyl acetate

> <PUBCHEM_IUPAC_NAME>
(19,20,22,23,25-pentaacetyloxy-26-hydroxy-3,15,26-trimethyl-6,16-dioxo-2,5,17-trioxa-11-azapentacyclo[16.7.1.01,21.03,24.07,12]hexacosa-7(12),8,10-trien-21-yl)methyl acetate

> <PUBCHEM_IUPAC_SYSTEMATIC_NAME>
[19,20,22,23,25-pentaacetyloxy-3,15,26-trimethyl-26-oxidanyl-6,16-bis(oxidanylidene)-2,5,17-trioxa-11-azapentacyclo[16.7.1.01,21.03,24.07,12]hexacosa-7(12),8,10-trien-21-yl]methyl ethanoate

> <PUBCHEM_IUPAC_TRADITIONAL_NAME>
acetic acid (19,20,22,23,25-pentaacetoxy-26-hydroxy-6,16-diketo-3,15,26-trimethyl-2,5,17-trioxa-11-azapentacyclo[16.7.1.01,21.03,24.07,12]hexacosa-7(12),8,10-trien-21-yl)methyl ester

> <PUBCHEM_IUPAC_INCHI>
InChI=1S/C38H47NO18/c1-17-12-13-25-24(11-10-14-39-25)34(47)50-15-35(8)26-27(51-19(3)41)31(54-22(6)44)37(16-49-18(2)40)32(55-23(7)45)28(52-20(4)42)30(56-33(17)46)36(9,48)38(37,57-35)29(26)53-21(5)43/h10-11,14,17,26-32,48H,12-13,15-16H2,1-9H3

> <PUBCHEM_IUPAC_INCHIKEY>
QIHHQEWWGMEJTH-UHFFFAOYSA-N

> <PUBCHEM_XLOGP3_AA>
0.5

> <PUBCHEM_EXACT_MASS>
805.279314

> <PUBCHEM_MOLECULAR_FORMULA>
C38H47NO18

> <PUBCHEM_MOLECULAR_WEIGHT>
805.8

> <PUBCHEM_OPENEYE_CAN_SMILES>
CC1CCC2=C(C=CC=N2)C(=O)OCC3(C4C(C(C5(C(C(C(C(C5(C4OC(=O)C)O3)(C)O)OC1=O)OC(=O)C)OC(=O)C)COC(=O)C)OC(=O)C)OC(=O)C)C

> <PUBCHEM_OPENEYE_ISO_SMILES>
CC1CCC2=C(C=CC=N2)C(=O)OCC3(C4C(C(C5(C(C(C(C(C5(C4OC(=O)C)O3)(C)O)OC1=O)OC(=O)C)OC(=O)C)COC(=O)C)OC(=O)C)OC(=O)C)C

> <PUBCHEM_CACTVS_TPSA>
253

> <PUBCHEM_MONOISOTOPIC_WEIGHT>
805.279314

> <PUBCHEM_TOTAL_CHARGE>
0

> <PUBCHEM_HEAVY_ATOM_COUNT>
57

> <PUBCHEM_ATOM_DEF_STEREO_COUNT>
0

> <PUBCHEM_ATOM_UDEF_STEREO_COUNT>
12

> <PUBCHEM_BOND_DEF_STEREO_COUNT>
0

> <PUBCHEM_BOND_UDEF_STEREO_COUNT>
0

> <PUBCHEM_ISOTOPIC_ATOM_COUNT>
0

> <PUBCHEM_COMPONENT_COUNT>
1

> <PUBCHEM_CACTVS_TAUTO_COUNT>
-1

> <PUBCHEM_COORDINATE_TYPE>
1
5
255

> <PUBCHEM_BONDANNOTATIONS>
19  54  8
19  57  8
23  2  3
20  23  3
21  31  3
22  27  3
26  34  3
25  3  3
24  4  3
43  52  3
27  5  3
51  54  8
51  55  8
55  56  8
56  57  8
28  6  3
29  7  3
30  8  3

$$$$
