44583769
  -OEChem-09122010032D

109114  0     1  0  0  0  0  0999 V2000
    8.3474   -0.5568    0.0000 O   0  0  0  0  0  0  0  0  0  0  0  0
    6.4187   -1.0050    0.0000 O   0  0  0  0  0  0  0  0  0  0  0  0
    9.0164    0.7064    0.0000 O   0  0  0  0  0  0  0  0  0  0  0  0
    6.3731    2.0500    0.0000 O   0  0  0  0  0  0  0  0  0  0  0  0
    8.9832   -0.6831    0.0000 O   0  0  0  0  0  0  0  0  0  0  0  0
    7.2110    3.0828    0.0000 O   0  0  0  0  0  0  0  0  0  0  0  0
    4.2362    0.6976    0.0000 O   0  0  0  0  0  0  0  0  0  0  0  0
    5.3962    2.8431    0.0000 O   0  0  0  0  0  0  0  0  0  0  0  0
    8.5472    2.9566    0.0000 O   0  0  0  0  0  0  0  0  0  0  0  0
    7.2753   -3.8190    0.0000 O   0  0  0  0  0  0  0  0  0  0  0  0
    5.4469    0.4287    0.0000 O   0  0  0  0  0  0  0  0  0  0  0  0
    9.6102    2.3335    0.0000 O   0  0  0  0  0  0  0  0  0  0  0  0
   10.1574    0.5903    0.0000 O   0  0  0  0  0  0  0  0  0  0  0  0
    5.5543    3.5883    0.0000 O   0  0  0  0  0  0  0  0  0  0  0  0
    2.5412    0.2637    0.0000 O   0  0  0  0  0  0  0  0  0  0  0  0
    3.9275    1.9249    0.0000 O   0  0  0  0  0  0  0  0  0  0  0  0
    7.6928    4.4632    0.0000 O   0  0  0  0  0  0  0  0  0  0  0  0
    2.1320   -1.0953    0.0000 O   0  0  0  0  0  0  0  0  0  0  0  0
    6.2349   -5.2258    0.0000 O   0  0  0  0  0  0  0  0  0  0  0  0
    2.8691    3.7254    0.0000 O   0  0  0  0  0  0  0  0  0  0  0  0
    5.7650   -2.5959    0.0000 N   0  0  0  0  0  0  0  0  0  0  0  0
    7.6620    0.4619    0.0000 C   0  0  1  0  0  0  0  0  0  0  0  0
    7.6697    1.4633    0.0000 C   0  0  2  0  0  0  0  0  0  0  0  0
    7.6020   -1.3749    0.0000 C   0  0  2  0  0  0  0  0  0  0  0  0
    7.2464   -0.4440    0.0000 C   0  0  1  0  0  0  0  0  0  0  0  0
    6.5986    1.0758    0.0000 C   0  0  2  0  0  0  0  0  0  0  0  0
    8.0314    0.5337    0.0000 C   0  0  1  0  0  0  0  0  0  0  0  0
    8.5156   -1.7731    0.0000 C   0  0  2  0  0  0  0  0  0  0  0  0
    8.0076   -0.4636    0.0000 C   0  0  2  0  0  0  0  0  0  0  0  0
    6.9192    2.1264    0.0000 C   0  0  2  0  0  0  0  0  0  0  0  0
    5.3736    1.1601    0.0000 C   0  0  2  0  0  0  0  0  0  0  0  0
    5.9263    1.9952    0.0000 C   0  0  2  0  0  0  0  0  0  0  0  0
    7.6774    2.4633    0.0000 C   0  0  0  0  0  0  0  0  0  0  0  0
    7.4392    1.8606    0.0000 C   0  0  0  0  0  0  0  0  0  0  0  0
    8.1322   -2.9396    0.0000 C   0  0  0  0  0  0  0  0  0  0  0  0
    9.5115   -1.8631    0.0000 C   0  0  0  0  0  0  0  0  0  0  0  0
    5.5189   -0.5687    0.0000 C   0  0  0  0  0  0  0  0  0  0  0  0
    9.7830    1.3485    0.0000 C   0  0  0  0  0  0  0  0  0  0  0  0
    9.9379   -0.3853    0.0000 C   0  0  0  0  0  0  0  0  0  0  0  0
    6.5286    3.8138    0.0000 C   0  0  0  0  0  0  0  0  0  0  0  0
    3.4177   -0.2177    0.0000 C   0  0  0  0  0  0  0  0  0  0  0  0
    4.3968    2.8080    0.0000 C   0  0  0  0  0  0  0  0  0  0  0  0
    8.5550    3.9566    0.0000 C   0  0  0  0  0  0  0  0  0  0  0  0
    3.0846   -1.3995    0.0000 C   0  0  3  0  0  0  0  0  0  0  0  0
    4.6912   -1.1298    0.0000 C   0  0  0  0  0  0  0  0  0  0  0  0
    6.1192   -4.2325    0.0000 C   0  0  0  0  0  0  0  0  0  0  0  0
   10.7224    1.0056    0.0000 C   0  0  0  0  0  0  0  0  0  0  0  0
   10.6731   -1.0632    0.0000 C   0  0  0  0  0  0  0  0  0  0  0  0
    6.8204    4.7703    0.0000 C   0  0  0  0  0  0  0  0  0  0  0  0
    3.3046   -2.6075    0.0000 C   0  0  3  0  0  0  0  0  0  0  0  0
    3.8666    3.6559    0.0000 C   0  0  0  0  0  0  0  0  0  0  0  0
    9.4248    4.4498    0.0000 C   0  0  0  0  0  0  0  0  0  0  0  0
    4.8990   -4.0959    0.0000 C   0  0  0  0  0  0  0  0  0  0  0  0
    2.2392   -1.9336    0.0000 C   0  0  0  0  0  0  0  0  0  0  0  0
    4.0329   -3.5959    0.0000 C   0  0  0  0  0  0  0  0  0  0  0  0
    2.3865   -3.0039    0.0000 C   0  0  0  0  0  0  0  0  0  0  0  0
    4.2410    4.5832    0.0000 C   0  0  0  0  0  0  0  0  0  0  0  0
    5.7650   -3.5959    0.0000 C   0  0  0  0  0  0  0  0  0  0  0  0
    4.0329   -2.5959    0.0000 C   0  0  0  0  0  0  0  0  0  0  0  0
    3.4748    5.2258    0.0000 C   0  0  0  0  0  0  0  0  0  0  0  0
    2.6269    4.6956    0.0000 C   0  0  0  0  0  0  0  0  0  0  0  0
    4.8990   -2.0959    0.0000 C   0  0  0  0  0  0  0  0  0  0  0  0
    6.8097   -1.6827    0.0000 H   0  0  0  0  0  0  0  0  0  0  0  0
    6.7570   -0.0634    0.0000 H   0  0  0  0  0  0  0  0  0  0  0  0
    8.5014    0.1293    0.0000 H   0  0  0  0  0  0  0  0  0  0  0  0
    8.2859   -1.0176    0.0000 H   0  0  0  0  0  0  0  0  0  0  0  0
    6.5183    2.5994    0.0000 H   0  0  0  0  0  0  0  0  0  0  0  0
    5.2393    1.9994    0.0000 H   0  0  0  0  0  0  0  0  0  0  0  0
    6.1906    2.5561    0.0000 H   0  0  0  0  0  0  0  0  0  0  0  0
    7.4698    3.0475    0.0000 H   0  0  0  0  0  0  0  0  0  0  0  0
    7.0660    2.3603    0.0000 H   0  0  0  0  0  0  0  0  0  0  0  0
    7.8623    1.4074    0.0000 H   0  0  0  0  0  0  0  0  0  0  0  0
    7.8924    2.2836    0.0000 H   0  0  0  0  0  0  0  0  0  0  0  0
    7.0161    2.3138    0.0000 H   0  0  0  0  0  0  0  0  0  0  0  0
    8.3887   -3.5041    0.0000 H   0  0  0  0  0  0  0  0  0  0  0  0
    7.6020   -2.6182    0.0000 H   0  0  0  0  0  0  0  0  0  0  0  0
    9.4558   -2.4806    0.0000 H   0  0  0  0  0  0  0  0  0  0  0  0
   10.1290   -1.9188    0.0000 H   0  0  0  0  0  0  0  0  0  0  0  0
    9.5673   -1.2456    0.0000 H   0  0  0  0  0  0  0  0  0  0  0  0
    6.5540    2.6430    0.0000 H   0  0  0  0  0  0  0  0  0  0  0  0
    4.3433   -0.6166    0.0000 H   0  0  0  0  0  0  0  0  0  0  0  0
    4.1779   -1.4777    0.0000 H   0  0  0  0  0  0  0  0  0  0  0  0
    5.0390   -1.6430    0.0000 H   0  0  0  0  0  0  0  0  0  0  0  0
   10.5098    0.4232    0.0000 H   0  0  0  0  0  0  0  0  0  0  0  0
   11.3048    0.7930    0.0000 H   0  0  0  0  0  0  0  0  0  0  0  0
   10.9350    1.5880    0.0000 H   0  0  0  0  0  0  0  0  0  0  0  0
   10.2528   -1.5190    0.0000 H   0  0  0  0  0  0  0  0  0  0  0  0
   11.1289   -1.4835    0.0000 H   0  0  0  0  0  0  0  0  0  0  0  0
   11.0934   -0.6074    0.0000 H   0  0  0  0  0  0  0  0  0  0  0  0
    7.4134    4.5893    0.0000 H   0  0  0  0  0  0  0  0  0  0  0  0
    7.0014    5.3633    0.0000 H   0  0  0  0  0  0  0  0  0  0  0  0
    6.2274    4.9512    0.0000 H   0  0  0  0  0  0  0  0  0  0  0  0
    2.7580   -2.3148    0.0000 H   0  0  0  0  0  0  0  0  0  0  0  0
    9.7306    3.9106    0.0000 H   0  0  0  0  0  0  0  0  0  0  0  0
    9.9641    4.7557    0.0000 H   0  0  0  0  0  0  0  0  0  0  0  0
    9.1190    4.9892    0.0000 H   0  0  0  0  0  0  0  0  0  0  0  0
    1.9080   -1.4095    0.0000 H   0  0  0  0  0  0  0  0  0  0  0  0
    1.7150   -2.2648    0.0000 H   0  0  0  0  0  0  0  0  0  0  0  0
    2.5703   -2.4578    0.0000 H   0  0  0  0  0  0  0  0  0  0  0  0
    2.0000   -0.4895    0.0000 H   0  0  0  0  0  0  0  0  0  0  0  0
    2.1407   -2.4346    0.0000 H   0  0  0  0  0  0  0  0  0  0  0  0
    1.8173   -3.2496    0.0000 H   0  0  0  0  0  0  0  0  0  0  0  0
    2.6322   -3.5731    0.0000 H   0  0  0  0  0  0  0  0  0  0  0  0
    4.8426    4.7333    0.0000 H   0  0  0  0  0  0  0  0  0  0  0  0
    6.3019   -3.9059    0.0000 H   0  0  0  0  0  0  0  0  0  0  0  0
    3.4960   -2.2859    0.0000 H   0  0  0  0  0  0  0  0  0  0  0  0
    3.5179    5.8443    0.0000 H   0  0  0  0  0  0  0  0  0  0  0  0
    2.0520    4.9277    0.0000 H   0  0  0  0  0  0  0  0  0  0  0  0
    4.8990   -1.4759    0.0000 H   0  0  0  0  0  0  0  0  0  0  0  0
 22  1  1  1  0  0  0
  1 28  1  0  0  0  0
 25  2  1  1  0  0  0
  2 37  1  0  0  0  0
 27  3  1  6  0  0  0
  3 38  1  0  0  0  0
 26  4  1  6  0  0  0
  4 80  1  0  0  0  0
 29  5  1  6  0  0  0
  5 39  1  0  0  0  0
 30  6  1  6  0  0  0
  6 40  1  0  0  0  0
  7 31  1  0  0  0  0
  7 41  1  0  0  0  0
 32  8  1  6  0  0  0
  8 42  1  0  0  0  0
  9 33  1  0  0  0  0
  9 43  1  0  0  0  0
 10 35  1  0  0  0  0
 10 46  1  0  0  0  0
 11 37  2  0  0  0  0
 12 38  2  0  0  0  0
 13 39  2  0  0  0  0
 14 40  2  0  0  0  0
 15 41  2  0  0  0  0
 16 42  2  0  0  0  0
 17 43  2  0  0  0  0
 18 44  1  0  0  0  0
 18100  1  0  0  0  0
 19 46  2  0  0  0  0
 20 51  1  0  0  0  0
 20 61  1  0  0  0  0
 21 58  2  0  0  0  0
 21 62  1  0  0  0  0
 22 23  1  0  0  0  0
 22 25  1  0  0  0  0
 22 26  1  0  0  0  0
 23 27  1  0  0  0  0
 23 30  1  0  0  0  0
 23 33  1  6  0  0  0
 24 25  1  0  0  0  0
 24 28  1  0  0  0  0
 24 29  1  0  0  0  0
 24 63  1  6  0  0  0
 25 64  1  0  0  0  0
 26 31  1  0  0  0  0
 26 34  1  0  0  0  0
 27 29  1  0  0  0  0
 27 65  1  0  0  0  0
 28 35  1  0  0  0  0
 28 36  1  6  0  0  0
 29 66  1  0  0  0  0
 30 32  1  0  0  0  0
 30 67  1  0  0  0  0
 31 32  1  0  0  0  0
 31 68  1  6  0  0  0
 32 69  1  0  0  0  0
 33 70  1  0  0  0  0
 33 71  1  0  0  0  0
 34 72  1  0  0  0  0
 34 73  1  0  0  0  0
 34 74  1  0  0  0  0
 35 75  1  0  0  0  0
 35 76  1  0  0  0  0
 36 77  1  0  0  0  0
 36 78  1  0  0  0  0
 36 79  1  0  0  0  0
 37 45  1  0  0  0  0
 38 47  1  0  0  0  0
 39 48  1  0  0  0  0
 40 49  1  0  0  0  0
 41 44  1  0  0  0  0
 42 51  1  0  0  0  0
 43 52  1  0  0  0  0
 44 50  1  0  0  0  0
 44 54  1  0  0  0  0
 45 81  1  0  0  0  0
 45 82  1  0  0  0  0
 45 83  1  0  0  0  0
 46 53  1  0  0  0  0
 47 84  1  0  0  0  0
 47 85  1  0  0  0  0
 47 86  1  0  0  0  0
 48 87  1  0  0  0  0
 48 88  1  0  0  0  0
 48 89  1  0  0  0  0
 49 90  1  0  0  0  0
 49 91  1  0  0  0  0
 49 92  1  0  0  0  0
 50 55  1  0  0  0  0
 50 56  1  0  0  0  0
 50 93  1  0  0  0  0
 51 57  2  0  0  0  0
 52 94  1  0  0  0  0
 52 95  1  0  0  0  0
 52 96  1  0  0  0  0
 53 55  2  0  0  0  0
 53 58  1  0  0  0  0
 54 97  1  0  0  0  0
 54 98  1  0  0  0  0
 54 99  1  0  0  0  0
 55 59  1  0  0  0  0
 56101  1  0  0  0  0
 56102  1  0  0  0  0
 56103  1  0  0  0  0
 57 60  1  0  0  0  0
 57104  1  0  0  0  0
 58105  1  0  0  0  0
 59 62  2  0  0  0  0
 59106  1  0  0  0  0
 60 61  2  0  0  0  0
 60107  1  0  0  0  0
 61108  1  0  0  0  0
 62109  1  0  0  0  0
M  END
> <PUBCHEM_COMPOUND_CID>
44583769

> <PUBCHEM_COMPOUND_CANONICALIZED>
1

> <PUBCHEM_CACTVS_COMPLEXITY>
1860

> <PUBCHEM_CACTVS_HBOND_ACCEPTOR>
21

> <PUBCHEM_CACTVS_HBOND_DONOR>
2

> <PUBCHEM_CACTVS_ROTATABLE_BOND>
14

> <PUBCHEM_CACTVS_SUBSKEYS>
AAADcfB+PgAAAAAAAAAAAAAAAAAAASJAAAA8YIAABIAAAADB4AAAHgAACAAAD1ThmgY+jJIIFkCoArj3zAKCiCA1IiAI2CF+bNgNJnrEtZ+GeajnwBHL6cfY//5PgAAAAAAAAADCAAYQADCAAAAAAAAAAA==

> <PUBCHEM_IUPAC_OPENEYE_NAME>
[(1S,3R,17S,18R,19R,20R,21S,22R,23R,24R,25S)-19,21,22,24-tetraacetoxy-20-(acetoxymethyl)-14,25-dihydroxy-3,13,14,25-tetramethyl-6,15-dioxo-2,5,16-trioxa-9-azapentacyclo[15.7.1.01,20.03,23.07,12]pentacosa-7(12),8,10-trien-18-yl] furan-2-carboxylate

> <PUBCHEM_IUPAC_CAS_NAME>
2-furancarboxylic acid [(1S,3R,17S,18R,19R,20R,21S,22R,23R,24R,25S)-19,21,22,24-tetraacetyloxy-20-(acetyloxymethyl)-14,25-dihydroxy-3,13,14,25-tetramethyl-6,15-dioxo-2,5,16-trioxa-9-azapentacyclo[15.7.1.01,20.03,23.07,12]pentacosa-7(12),8,10-trien-18-yl] ester

> <PUBCHEM_IUPAC_NAME_MARKUP>
[(1<I>S</I>,3<I>R</I>,17<I>S</I>,18<I>R</I>,19<I>R</I>,20<I>R</I>,21<I>S</I>,22<I>R</I>,23<I>R</I>,24<I>R</I>,25<I>S</I>)-19,21,22,24-tetraacetyloxy-20-(acetyloxymethyl)-14,25-dihydroxy-3,13,14,25-tetramethyl-6,15-dioxo-2,5,16-trioxa-9-azapentacyclo[15.7.1.0<SUP>1,20</SUP>.0<SUP>3,23</SUP>.0<SUP>7,12</SUP>]pentacosa-7(12),8,10-trien-18-yl] furan-2-carboxylate

> <PUBCHEM_IUPAC_NAME>
[(1S,3R,17S,18R,19R,20R,21S,22R,23R,24R,25S)-19,21,22,24-tetraacetyloxy-20-(acetyloxymethyl)-14,25-dihydroxy-3,13,14,25-tetramethyl-6,15-dioxo-2,5,16-trioxa-9-azapentacyclo[15.7.1.01,20.03,23.07,12]pentacosa-7(12),8,10-trien-18-yl] furan-2-carboxylate

> <PUBCHEM_IUPAC_SYSTEMATIC_NAME>
[(1S,3R,17S,18R,19R,20R,21S,22R,23R,24R,25S)-19,21,22,24-tetraacetyloxy-20-(acetyloxymethyl)-3,13,14,25-tetramethyl-14,25-bis(oxidanyl)-6,15-bis(oxidanylidene)-2,5,16-trioxa-9-azapentacyclo[15.7.1.01,20.03,23.07,12]pentacosa-7(12),8,10-trien-18-yl] furan-2-carboxylate

> <PUBCHEM_IUPAC_TRADITIONAL_NAME>
furan-2-carboxylic acid [(1S,3R,17S,18R,19R,20R,21S,22R,23R,24R,25S)-19,21,22,24-tetraacetoxy-20-(acetoxymethyl)-14,25-dihydroxy-6,15-diketo-3,13,14,25-tetramethyl-2,5,16-trioxa-9-azapentacyclo[15.7.1.01,20.03,23.07,12]pentacosa-7(12),8,10-trien-18-yl] ester

> <PUBCHEM_IUPAC_INCHI>
InChI=1S/C41H47NO20/c1-18-24-12-13-42-15-25(24)34(48)55-16-37(7)27-28(56-20(3)44)32(58-22(5)46)40(17-54-19(2)43)33(59-23(6)47)29(60-35(49)26-11-10-14-53-26)31(61-36(50)38(18,8)51)39(9,52)41(40,62-37)30(27)57-21(4)45/h10-15,18,27-33,51-52H,16-17H2,1-9H3/t18?,27-,28-,29+,30-,31+,32-,33+,37+,38?,39+,40-,41+/m1/s1

> <PUBCHEM_IUPAC_INCHIKEY>
JXQXTWWCCNHEQZ-PEWXIWONSA-N

> <PUBCHEM_XLOGP3_AA>
0.6

> <PUBCHEM_EXACT_MASS>
873.269143

> <PUBCHEM_MOLECULAR_FORMULA>
C41H47NO20

> <PUBCHEM_MOLECULAR_WEIGHT>
873.8

> <PUBCHEM_OPENEYE_CAN_SMILES>
CC1C2=C(C=NC=C2)C(=O)OCC3(C4C(C(C5(C(C(C(C(C5(C4OC(=O)C)O3)(C)O)OC(=O)C1(C)O)OC(=O)C6=CC=CO6)OC(=O)C)COC(=O)C)OC(=O)C)OC(=O)C)C

> <PUBCHEM_OPENEYE_ISO_SMILES>
CC1C2=C(C=NC=C2)C(=O)OC[C@]3([C@@H]4[C@H]([C@H]([C@@]5([C@H]([C@H]([C@@H]([C@]([C@]5([C@@H]4OC(=O)C)O3)(C)O)OC(=O)C1(C)O)OC(=O)C6=CC=CO6)OC(=O)C)COC(=O)C)OC(=O)C)OC(=O)C)C

> <PUBCHEM_CACTVS_TPSA>
286

> <PUBCHEM_MONOISOTOPIC_WEIGHT>
873.269143

> <PUBCHEM_TOTAL_CHARGE>
0

> <PUBCHEM_HEAVY_ATOM_COUNT>
62

> <PUBCHEM_ATOM_DEF_STEREO_COUNT>
11

> <PUBCHEM_ATOM_UDEF_STEREO_COUNT>
2

> <PUBCHEM_BOND_DEF_STEREO_COUNT>
0

> <PUBCHEM_BOND_UDEF_STEREO_COUNT>
0

> <PUBCHEM_ISOTOPIC_ATOM_COUNT>
0

> <PUBCHEM_COMPONENT_COUNT>
1

> <PUBCHEM_CACTVS_TAUTO_COUNT>
-1

> <PUBCHEM_COORDINATE_TYPE>
1
5
255

> <PUBCHEM_BONDANNOTATIONS>
22  1  5
44  18  3
25  2  5
20  51  8
20  61  8
21  58  8
21  62  8
23  33  6
24  63  6
28  36  6
27  3  6
31  68  6
26  4  6
29  5  6
50  56  3
51  57  8
53  55  8
53  58  8
55  59  8
57  60  8
59  62  8
30  6  6
60  61  8
32  8  6

$$$$
