5366692
  -OEChem-09302001072D

 87 86  0     1  0  0  0  0  0999 V2000
   13.2583    4.1270    0.0000 Si  0  0  0  0  0  0  0  0  0  0  0  0
    8.9282    4.6270    0.0000 Si  0  0  0  0  0  0  0  0  0  0  0  0
   12.3923    4.6270    0.0000 O   0  0  0  0  0  0  0  0  0  0  0  0
    9.7942    4.1270    0.0000 O   0  0  0  0  0  0  0  0  0  0  0  0
   10.6603    2.6270    0.0000 O   0  0  0  0  0  0  0  0  0  0  0  0
   11.5263    1.1270    0.0000 O   0  0  0  0  0  0  0  0  0  0  0  0
   11.5263    4.1270    0.0000 C   0  0  3  0  0  0  0  0  0  0  0  0
   10.6603    4.6270    0.0000 C   0  0  0  0  0  0  0  0  0  0  0  0
   11.5263    3.1270    0.0000 C   0  0  0  0  0  0  0  0  0  0  0  0
    8.9282   -1.3730    0.0000 C   0  0  0  0  0  0  0  0  0  0  0  0
    8.9282   -0.3730    0.0000 C   0  0  0  0  0  0  0  0  0  0  0  0
    8.0622   -1.8730    0.0000 C   0  0  0  0  0  0  0  0  0  0  0  0
    9.7942    0.1270    0.0000 C   0  0  0  0  0  0  0  0  0  0  0  0
   14.1244    3.6270    0.0000 C   0  0  0  0  0  0  0  0  0  0  0  0
   13.7583    4.9930    0.0000 C   0  0  0  0  0  0  0  0  0  0  0  0
   12.7583    3.2610    0.0000 C   0  0  0  0  0  0  0  0  0  0  0  0
    8.0622   -2.8730    0.0000 C   0  0  0  0  0  0  0  0  0  0  0  0
    9.7942    1.1270    0.0000 C   0  0  0  0  0  0  0  0  0  0  0  0
    8.0622    5.1270    0.0000 C   0  0  0  0  0  0  0  0  0  0  0  0
    8.4282    3.7610    0.0000 C   0  0  0  0  0  0  0  0  0  0  0  0
    9.4282    5.4930    0.0000 C   0  0  0  0  0  0  0  0  0  0  0  0
    7.1962   -3.3730    0.0000 C   0  0  0  0  0  0  0  0  0  0  0  0
   10.6603    1.6270    0.0000 C   0  0  0  0  0  0  0  0  0  0  0  0
    7.1962   -4.3730    0.0000 C   0  0  0  0  0  0  0  0  0  0  0  0
    2.8660   -2.8730    0.0000 C   0  0  0  0  0  0  0  0  0  0  0  0
    6.3301   -4.8730    0.0000 C   0  0  0  0  0  0  0  0  0  0  0  0
    2.8660   -1.8730    0.0000 C   0  0  0  0  0  0  0  0  0  0  0  0
    3.7320   -3.3730    0.0000 C   0  0  0  0  0  0  0  0  0  0  0  0
    5.4641   -4.3730    0.0000 C   0  0  0  0  0  0  0  0  0  0  0  0
    2.0000   -1.3730    0.0000 C   0  0  0  0  0  0  0  0  0  0  0  0
    3.7320   -4.3730    0.0000 C   0  0  0  0  0  0  0  0  0  0  0  0
    4.5981   -4.8730    0.0000 C   0  0  0  0  0  0  0  0  0  0  0  0
    2.0000   -0.3730    0.0000 C   0  0  0  0  0  0  0  0  0  0  0  0
   12.0632    3.8170    0.0000 H   0  0  0  0  0  0  0  0  0  0  0  0
   11.0588    5.1019    0.0000 H   0  0  0  0  0  0  0  0  0  0  0  0
   10.2617    5.1019    0.0000 H   0  0  0  0  0  0  0  0  0  0  0  0
   11.7383    2.5444    0.0000 H   0  0  0  0  0  0  0  0  0  0  0  0
   12.1369    3.2346    0.0000 H   0  0  0  0  0  0  0  0  0  0  0  0
    9.1403   -1.9556    0.0000 H   0  0  0  0  0  0  0  0  0  0  0  0
    9.5388   -1.2654    0.0000 H   0  0  0  0  0  0  0  0  0  0  0  0
    8.7162    0.2096    0.0000 H   0  0  0  0  0  0  0  0  0  0  0  0
    8.3176   -0.4807    0.0000 H   0  0  0  0  0  0  0  0  0  0  0  0
    7.8501   -1.2904    0.0000 H   0  0  0  0  0  0  0  0  0  0  0  0
    7.4516   -1.9807    0.0000 H   0  0  0  0  0  0  0  0  0  0  0  0
   10.0063   -0.4556    0.0000 H   0  0  0  0  0  0  0  0  0  0  0  0
   10.4048    0.2346    0.0000 H   0  0  0  0  0  0  0  0  0  0  0  0
   13.8144    3.0901    0.0000 H   0  0  0  0  0  0  0  0  0  0  0  0
   14.6613    3.3170    0.0000 H   0  0  0  0  0  0  0  0  0  0  0  0
   14.4344    4.1639    0.0000 H   0  0  0  0  0  0  0  0  0  0  0  0
   14.2953    4.6830    0.0000 H   0  0  0  0  0  0  0  0  0  0  0  0
   14.0683    5.5300    0.0000 H   0  0  0  0  0  0  0  0  0  0  0  0
   13.2214    5.3030    0.0000 H   0  0  0  0  0  0  0  0  0  0  0  0
   12.2214    3.5710    0.0000 H   0  0  0  0  0  0  0  0  0  0  0  0
   12.4483    2.7240    0.0000 H   0  0  0  0  0  0  0  0  0  0  0  0
   13.2953    2.9510    0.0000 H   0  0  0  0  0  0  0  0  0  0  0  0
    8.2742   -3.4556    0.0000 H   0  0  0  0  0  0  0  0  0  0  0  0
    8.6728   -2.7654    0.0000 H   0  0  0  0  0  0  0  0  0  0  0  0
    9.5822    1.7096    0.0000 H   0  0  0  0  0  0  0  0  0  0  0  0
    9.1836    1.0193    0.0000 H   0  0  0  0  0  0  0  0  0  0  0  0
    8.3722    5.6639    0.0000 H   0  0  0  0  0  0  0  0  0  0  0  0
    7.5252    5.4370    0.0000 H   0  0  0  0  0  0  0  0  0  0  0  0
    7.7522    4.5900    0.0000 H   0  0  0  0  0  0  0  0  0  0  0  0
    7.8913    4.0710    0.0000 H   0  0  0  0  0  0  0  0  0  0  0  0
    8.1182    3.2240    0.0000 H   0  0  0  0  0  0  0  0  0  0  0  0
    8.9651    3.4510    0.0000 H   0  0  0  0  0  0  0  0  0  0  0  0
    9.9651    5.1830    0.0000 H   0  0  0  0  0  0  0  0  0  0  0  0
    9.7382    6.0300    0.0000 H   0  0  0  0  0  0  0  0  0  0  0  0
    8.8913    5.8030    0.0000 H   0  0  0  0  0  0  0  0  0  0  0  0
    6.9841   -2.7904    0.0000 H   0  0  0  0  0  0  0  0  0  0  0  0
    6.5856   -3.4807    0.0000 H   0  0  0  0  0  0  0  0  0  0  0  0
    7.7331   -4.6830    0.0000 H   0  0  0  0  0  0  0  0  0  0  0  0
    2.2554   -2.7654    0.0000 H   0  0  0  0  0  0  0  0  0  0  0  0
    2.6540   -3.4556    0.0000 H   0  0  0  0  0  0  0  0  0  0  0  0
    6.3301   -5.4930    0.0000 H   0  0  0  0  0  0  0  0  0  0  0  0
    3.4766   -1.9807    0.0000 H   0  0  0  0  0  0  0  0  0  0  0  0
    3.0781   -1.2904    0.0000 H   0  0  0  0  0  0  0  0  0  0  0  0
    4.3426   -3.4807    0.0000 H   0  0  0  0  0  0  0  0  0  0  0  0
    3.9441   -2.7904    0.0000 H   0  0  0  0  0  0  0  0  0  0  0  0
    5.8626   -3.8981    0.0000 H   0  0  0  0  0  0  0  0  0  0  0  0
    5.0656   -3.8981    0.0000 H   0  0  0  0  0  0  0  0  0  0  0  0
    1.3894   -1.2654    0.0000 H   0  0  0  0  0  0  0  0  0  0  0  0
    1.7880   -1.9556    0.0000 H   0  0  0  0  0  0  0  0  0  0  0  0
    3.1951   -4.6830    0.0000 H   0  0  0  0  0  0  0  0  0  0  0  0
    4.5981   -5.4930    0.0000 H   0  0  0  0  0  0  0  0  0  0  0  0
    2.6200   -0.3730    0.0000 H   0  0  0  0  0  0  0  0  0  0  0  0
    2.0000    0.2470    0.0000 H   0  0  0  0  0  0  0  0  0  0  0  0
    1.3800   -0.3730    0.0000 H   0  0  0  0  0  0  0  0  0  0  0  0
  1  3  1  0  0  0  0
  1 14  1  0  0  0  0
  1 15  1  0  0  0  0
  1 16  1  0  0  0  0
  2  4  1  0  0  0  0
  2 19  1  0  0  0  0
  2 20  1  0  0  0  0
  2 21  1  0  0  0  0
  3  7  1  0  0  0  0
  4  8  1  0  0  0  0
  5  9  1  0  0  0  0
  5 23  1  0  0  0  0
  6 23  2  0  0  0  0
  7  8  1  0  0  0  0
  7  9  1  0  0  0  0
  7 34  1  0  0  0  0
  8 35  1  0  0  0  0
  8 36  1  0  0  0  0
  9 37  1  0  0  0  0
  9 38  1  0  0  0  0
 10 11  1  0  0  0  0
 10 12  1  0  0  0  0
 10 39  1  0  0  0  0
 10 40  1  0  0  0  0
 11 13  1  0  0  0  0
 11 41  1  0  0  0  0
 11 42  1  0  0  0  0
 12 17  1  0  0  0  0
 12 43  1  0  0  0  0
 12 44  1  0  0  0  0
 13 18  1  0  0  0  0
 13 45  1  0  0  0  0
 13 46  1  0  0  0  0
 14 47  1  0  0  0  0
 14 48  1  0  0  0  0
 14 49  1  0  0  0  0
 15 50  1  0  0  0  0
 15 51  1  0  0  0  0
 15 52  1  0  0  0  0
 16 53  1  0  0  0  0
 16 54  1  0  0  0  0
 16 55  1  0  0  0  0
 17 22  1  0  0  0  0
 17 56  1  0  0  0  0
 17 57  1  0  0  0  0
 18 23  1  0  0  0  0
 18 58  1  0  0  0  0
 18 59  1  0  0  0  0
 19 60  1  0  0  0  0
 19 61  1  0  0  0  0
 19 62  1  0  0  0  0
 20 63  1  0  0  0  0
 20 64  1  0  0  0  0
 20 65  1  0  0  0  0
 21 66  1  0  0  0  0
 21 67  1  0  0  0  0
 21 68  1  0  0  0  0
 22 24  1  0  0  0  0
 22 69  1  0  0  0  0
 22 70  1  0  0  0  0
 24 26  2  0  0  0  0
 24 71  1  0  0  0  0
 25 27  1  0  0  0  0
 25 28  1  0  0  0  0
 25 72  1  0  0  0  0
 25 73  1  0  0  0  0
 26 29  1  0  0  0  0
 26 74  1  0  0  0  0
 27 30  1  0  0  0  0
 27 75  1  0  0  0  0
 27 76  1  0  0  0  0
 28 31  1  0  0  0  0
 28 77  1  0  0  0  0
 28 78  1  0  0  0  0
 29 32  1  0  0  0  0
 29 79  1  0  0  0  0
 29 80  1  0  0  0  0
 30 33  1  0  0  0  0
 30 81  1  0  0  0  0
 30 82  1  0  0  0  0
 31 32  2  0  0  0  0
 31 83  1  0  0  0  0
 32 84  1  0  0  0  0
 33 85  1  0  0  0  0
 33 86  1  0  0  0  0
 33 87  1  0  0  0  0
M  END
> <PUBCHEM_COMPOUND_CID>
5366692

> <PUBCHEM_COMPOUND_CANONICALIZED>
1

> <PUBCHEM_CACTVS_COMPLEXITY>
533

> <PUBCHEM_CACTVS_HBOND_ACCEPTOR>
4

> <PUBCHEM_CACTVS_HBOND_DONOR>
0

> <PUBCHEM_CACTVS_ROTATABLE_BOND>
22

> <PUBCHEM_CACTVS_SUBSKEYS>
AAADcfB4OAwAAAAAAAAAAAAAAAAAAAAAAAAAAAAAAAAAAAAAAAAAGhAAAEAACBSggAJCCAAABAGIACDSCAAAAAAgAAAICAEAAAgBABIAAQACAAAFgAAKAAOIyKCAAAAAAAAAAAAAAAAAAAAAAAAAAAAAAA==

> <PUBCHEM_IUPAC_OPENEYE_NAME>
2,3-bis(trimethylsilyloxy)propyl (9Z,12Z)-octadeca-9,12-dienoate

> <PUBCHEM_IUPAC_CAS_NAME>
(9Z,12Z)-octadeca-9,12-dienoic acid 2,3-bis(trimethylsilyloxy)propyl ester

> <PUBCHEM_IUPAC_NAME_MARKUP>
2,3-bis(trimethylsilyloxy)propyl (9<I>Z</I>,12<I>Z</I>)-octadeca-9,12-dienoate

> <PUBCHEM_IUPAC_NAME>
2,3-bis(trimethylsilyloxy)propyl (9Z,12Z)-octadeca-9,12-dienoate

> <PUBCHEM_IUPAC_SYSTEMATIC_NAME>
2,3-bis(trimethylsilyloxy)propyl (9Z,12Z)-octadeca-9,12-dienoate

> <PUBCHEM_IUPAC_TRADITIONAL_NAME>
(9Z,12Z)-octadeca-9,12-dienoic acid 2,3-bis(trimethylsilyloxy)propyl ester

> <PUBCHEM_IUPAC_INCHI>
InChI=1S/C27H54O4Si2/c1-8-9-10-11-12-13-14-15-16-17-18-19-20-21-22-23-27(28)29-24-26(31-33(5,6)7)25-30-32(2,3)4/h12-13,15-16,26H,8-11,14,17-25H2,1-7H3/b13-12-,16-15-

> <PUBCHEM_IUPAC_INCHIKEY>
ZSJCVZNRVUZSFU-QGLGPCELSA-N

> <PUBCHEM_EXACT_MASS>
498.356063

> <PUBCHEM_MOLECULAR_FORMULA>
C27H54O4Si2

> <PUBCHEM_MOLECULAR_WEIGHT>
498.9

> <PUBCHEM_OPENEYE_CAN_SMILES>
CCCCCC=CCC=CCCCCCCCC(=O)OCC(CO[Si](C)(C)C)O[Si](C)(C)C

> <PUBCHEM_OPENEYE_ISO_SMILES>
CCCCC/C=C\C/C=C\CCCCCCCC(=O)OCC(CO[Si](C)(C)C)O[Si](C)(C)C

> <PUBCHEM_CACTVS_TPSA>
44.8

> <PUBCHEM_MONOISOTOPIC_WEIGHT>
498.356063

> <PUBCHEM_TOTAL_CHARGE>
0

> <PUBCHEM_HEAVY_ATOM_COUNT>
33

> <PUBCHEM_ATOM_DEF_STEREO_COUNT>
0

> <PUBCHEM_ATOM_UDEF_STEREO_COUNT>
1

> <PUBCHEM_BOND_DEF_STEREO_COUNT>
2

> <PUBCHEM_BOND_UDEF_STEREO_COUNT>
0

> <PUBCHEM_ISOTOPIC_ATOM_COUNT>
0

> <PUBCHEM_COMPONENT_COUNT>
1

> <PUBCHEM_CACTVS_TAUTO_COUNT>
-1

> <PUBCHEM_COORDINATE_TYPE>
1
5
255

> <PUBCHEM_BONDANNOTATIONS>
7  9  3

$$$$
