16175789
  -OEChem-11212011352D

106116  0     1  0  0  0  0  0999 V2000
    6.2586    0.0666    0.0000 O   0  0  0  0  0  0  0  0  0  0  0  0
    8.9087    1.6150    0.0000 O   0  0  0  0  0  0  0  0  0  0  0  0
    8.9286   -0.4198    0.0000 O   0  0  0  0  0  0  0  0  0  0  0  0
    7.1766    2.6150    0.0000 O   0  0  0  0  0  0  0  0  0  0  0  0
    5.4065    1.6182    0.0000 O   0  0  0  0  0  0  0  0  0  0  0  0
    6.3063   -1.9609    0.0000 O   0  0  0  0  0  0  0  0  0  0  0  0
    9.7747    0.1150    0.0000 O   0  0  0  0  0  0  0  0  0  0  0  0
   10.4896   -1.8601    0.0000 O   0  0  0  0  0  0  0  0  0  0  0  0
    8.0427    4.1150    0.0000 O   0  0  0  0  0  0  0  0  0  0  0  0
    8.4950   -2.4520    0.0000 O   0  0  0  0  0  0  0  0  0  0  0  0
   10.3861   -5.5727    0.0000 O   0  0  0  0  0  0  0  0  0  0  0  0
    6.0703   -4.9287    0.0000 O   0  0  0  0  0  0  0  0  0  0  0  0
    6.4447   -3.8496    0.0000 O   0  0  0  0  0  0  0  0  0  0  0  0
   11.5231    4.1496    0.0000 O   0  0  0  0  0  0  0  0  0  0  0  0
   10.8928    5.0354    0.0000 O   0  0  0  0  0  0  0  0  0  0  0  0
   13.1051   -2.1096    0.0000 O   0  0  0  0  0  0  0  0  0  0  0  0
   12.8350   -3.0602    0.0000 O   0  0  0  0  0  0  0  0  0  0  0  0
   12.3342   -5.0197    0.0000 O   0  0  0  0  0  0  0  0  0  0  0  0
   13.3049    1.0909    0.0000 O   0  0  0  0  0  0  0  0  0  0  0  0
   12.0038    1.3343    0.0000 O   0  0  0  0  0  0  0  0  0  0  0  0
   13.3049    3.1392    0.0000 O   0  0  0  0  0  0  0  0  0  0  0  0
    6.5118    5.1838    0.0000 O   0  0  0  0  0  0  0  0  0  0  0  0
    8.7486    6.4752    0.0000 O   0  0  0  0  0  0  0  0  0  0  0  0
   13.6353   -0.1311    0.0000 O   0  0  0  0  0  0  0  0  0  0  0  0
    8.7556   -1.4795    0.0000 O   0  0  0  0  0  0  0  0  0  0  0  0
    7.0193   -2.7306    0.0000 O   0  0  0  0  0  0  0  0  0  0  0  0
    9.1394   -6.8032    0.0000 O   0  0  0  0  0  0  0  0  0  0  0  0
    4.3299   -5.9767    0.0000 O   0  0  0  0  0  0  0  0  0  0  0  0
    2.5247   -2.9318    0.0000 O   0  0  0  0  0  0  0  0  0  0  0  0
    2.5405   -4.9800    0.0000 O   0  0  0  0  0  0  0  0  0  0  0  0
    8.0427    1.1150    0.0000 C   0  0  3  0  0  0  0  0  0  0  0  0
    8.0587    0.0735    0.0000 C   0  0  3  0  0  0  0  0  0  0  0  0
    7.1766    1.6150    0.0000 C   0  0  3  0  0  0  0  0  0  0  0  0
    7.1607   -0.4542    0.0000 C   0  0  3  0  0  0  0  0  0  0  0  0
    6.2666    1.1082    0.0000 C   0  0  3  0  0  0  0  0  0  0  0  0
    7.1684   -1.4542    0.0000 C   0  0  0  0  0  0  0  0  0  0  0  0
    9.7747    1.1150    0.0000 C   0  0  0  0  0  0  0  0  0  0  0  0
    9.7161   -1.2262    0.0000 C   0  0  0  0  0  0  0  0  0  0  0  0
    8.0427    3.1150    0.0000 C   0  0  0  0  0  0  0  0  0  0  0  0
   10.6408    1.6150    0.0000 C   0  0  0  0  0  0  0  0  0  0  0  0
   10.6800   -0.9600    0.0000 C   0  0  0  0  0  0  0  0  0  0  0  0
    8.9087    2.6150    0.0000 C   0  0  0  0  0  0  0  0  0  0  0  0
   10.6408    2.6150    0.0000 C   0  0  0  0  0  0  0  0  0  0  0  0
    9.7747    3.1150    0.0000 C   0  0  0  0  0  0  0  0  0  0  0  0
   11.3926   -1.6616    0.0000 C   0  0  0  0  0  0  0  0  0  0  0  0
   11.1412   -2.6295    0.0000 C   0  0  0  0  0  0  0  0  0  0  0  0
    6.0549   -2.9288    0.0000 C   0  0  0  0  0  0  0  0  0  0  0  0
   10.1773   -2.8958    0.0000 C   0  0  0  0  0  0  0  0  0  0  0  0
    9.9259   -3.8637    0.0000 C   0  0  0  0  0  0  0  0  0  0  0  0
   11.5347    1.0804    0.0000 C   0  0  0  0  0  0  0  0  0  0  0  0
   10.9263    0.0521    0.0000 C   0  0  0  0  0  0  0  0  0  0  0  0
    7.4974    3.1922    0.0000 C   0  0  0  0  0  0  0  0  0  0  0  0
    8.9620   -4.1299    0.0000 C   0  0  0  0  0  0  0  0  0  0  0  0
   11.5347    3.1497    0.0000 C   0  0  0  0  0  0  0  0  0  0  0  0
    9.9806    4.6258    0.0000 C   0  0  0  0  0  0  0  0  0  0  0  0
   12.4007   -1.3998    0.0000 C   0  0  0  0  0  0  0  0  0  0  0  0
   10.6415   -4.5847    0.0000 C   0  0  0  0  0  0  0  0  0  0  0  0
   11.8732   -3.3338    0.0000 C   0  0  0  0  0  0  0  0  0  0  0  0
    5.1928   -3.4354    0.0000 C   0  0  0  0  0  0  0  0  0  0  0  0
    8.2495   -3.4283    0.0000 C   0  0  0  0  0  0  0  0  0  0  0  0
    8.6839   -5.1117    0.0000 C   0  0  0  0  0  0  0  0  0  0  0  0
   12.4408    1.5942    0.0000 C   0  0  0  0  0  0  0  0  0  0  0  0
   11.6217   -4.3180    0.0000 C   0  0  0  0  0  0  0  0  0  0  0  0
   12.4408    2.6358    0.0000 C   0  0  0  0  0  0  0  0  0  0  0  0
   11.9281    0.3372    0.0000 C   0  0  0  0  0  0  0  0  0  0  0  0
    7.3942    4.7134    0.0000 C   0  0  0  0  0  0  0  0  0  0  0  0
    8.7147    5.4758    0.0000 C   0  0  0  0  0  0  0  0  0  0  0  0
   12.6703   -0.3936    0.0000 C   0  0  0  0  0  0  0  0  0  0  0  0
    9.4654   -2.1839    0.0000 C   0  0  0  0  0  0  0  0  0  0  0  0
    5.2005   -4.4354    0.0000 C   0  0  0  0  0  0  0  0  0  0  0  0
    7.2856   -3.6945    0.0000 C   0  0  0  0  0  0  0  0  0  0  0  0
    7.0342   -4.6624    0.0000 C   0  0  0  0  0  0  0  0  0  0  0  0
    7.7221   -5.3899    0.0000 C   0  0  0  0  0  0  0  0  0  0  0  0
    9.4008   -5.8380    0.0000 C   0  0  0  0  0  0  0  0  0  0  0  0
    4.2947   -2.9077    0.0000 C   0  0  0  0  0  0  0  0  0  0  0  0
    4.3107   -4.9769    0.0000 C   0  0  0  0  0  0  0  0  0  0  0  0
    3.3926   -3.4285    0.0000 C   0  0  0  0  0  0  0  0  0  0  0  0
    3.4007   -4.4701    0.0000 C   0  0  0  0  0  0  0  0  0  0  0  0
    8.5820    0.8092    0.0000 H   0  0  0  0  0  0  0  0  0  0  0  0
    8.5921    0.3897    0.0000 H   0  0  0  0  0  0  0  0  0  0  0  0
    6.6421    1.9292    0.0000 H   0  0  0  0  0  0  0  0  0  0  0  0
    6.6250   -0.7663    0.0000 H   0  0  0  0  0  0  0  0  0  0  0  0
    6.2750    1.7281    0.0000 H   0  0  0  0  0  0  0  0  0  0  0  0
    7.3850   -2.0351    0.0000 H   0  0  0  0  0  0  0  0  0  0  0  0
    7.7781   -1.3418    0.0000 H   0  0  0  0  0  0  0  0  0  0  0  0
    4.8660    1.3144    0.0000 H   0  0  0  0  0  0  0  0  0  0  0  0
   11.5275    0.4604    0.0000 H   0  0  0  0  0  0  0  0  0  0  0  0
   10.4795    0.4820    0.0000 H   0  0  0  0  0  0  0  0  0  0  0  0
    6.9947    2.8293    0.0000 H   0  0  0  0  0  0  0  0  0  0  0  0
    7.5592   -5.9881    0.0000 H   0  0  0  0  0  0  0  0  0  0  0  0
    4.2971   -2.2877    0.0000 H   0  0  0  0  0  0  0  0  0  0  0  0
   12.0565    4.4658    0.0000 H   0  0  0  0  0  0  0  0  0  0  0  0
   10.9557    5.6523    0.0000 H   0  0  0  0  0  0  0  0  0  0  0  0
   13.7046   -1.9515    0.0000 H   0  0  0  0  0  0  0  0  0  0  0  0
   13.2801   -3.4918    0.0000 H   0  0  0  0  0  0  0  0  0  0  0  0
   12.1783   -5.6198    0.0000 H   0  0  0  0  0  0  0  0  0  0  0  0
   13.8430    1.3988    0.0000 H   0  0  0  0  0  0  0  0  0  0  0  0
   11.4918    1.6840    0.0000 H   0  0  0  0  0  0  0  0  0  0  0  0
   13.8430    2.8313    0.0000 H   0  0  0  0  0  0  0  0  0  0  0  0
    6.4908    5.8035    0.0000 H   0  0  0  0  0  0  0  0  0  0  0  0
    8.2224    6.8032    0.0000 H   0  0  0  0  0  0  0  0  0  0  0  0
   14.0754   -0.5678    0.0000 H   0  0  0  0  0  0  0  0  0  0  0  0
    7.4543   -2.2889    0.0000 H   0  0  0  0  0  0  0  0  0  0  0  0
    3.7991   -6.2970    0.0000 H   0  0  0  0  0  0  0  0  0  0  0  0
    2.5223   -2.3118    0.0000 H   0  0  0  0  0  0  0  0  0  0  0  0
    2.0000   -4.6763    0.0000 H   0  0  0  0  0  0  0  0  0  0  0  0
  1 34  1  0  0  0  0
  1 35  1  0  0  0  0
  2 31  1  0  0  0  0
  2 37  1  0  0  0  0
  3 32  1  0  0  0  0
  3 38  1  0  0  0  0
  4 33  1  0  0  0  0
  4 39  1  0  0  0  0
  5 35  1  0  0  0  0
  5 86  1  0  0  0  0
  6 36  1  0  0  0  0
  6 47  1  0  0  0  0
  7 37  2  0  0  0  0
  8 38  2  0  0  0  0
  9 39  2  0  0  0  0
 10 60  1  0  0  0  0
 10 69  1  0  0  0  0
 11 57  1  0  0  0  0
 11 74  1  0  0  0  0
 12 70  1  0  0  0  0
 12 72  1  0  0  0  0
 13 47  2  0  0  0  0
 14 54  1  0  0  0  0
 14 92  1  0  0  0  0
 15 55  1  0  0  0  0
 15 93  1  0  0  0  0
 16 56  1  0  0  0  0
 16 94  1  0  0  0  0
 17 58  1  0  0  0  0
 17 95  1  0  0  0  0
 18 63  1  0  0  0  0
 18 96  1  0  0  0  0
 19 62  1  0  0  0  0
 19 97  1  0  0  0  0
 20 65  1  0  0  0  0
 20 98  1  0  0  0  0
 21 64  1  0  0  0  0
 21 99  1  0  0  0  0
 22 66  1  0  0  0  0
 22100  1  0  0  0  0
 23 67  1  0  0  0  0
 23101  1  0  0  0  0
 24 68  1  0  0  0  0
 24102  1  0  0  0  0
 25 69  2  0  0  0  0
 26 71  1  0  0  0  0
 26103  1  0  0  0  0
 27 74  2  0  0  0  0
 28 76  1  0  0  0  0
 28104  1  0  0  0  0
 29 77  1  0  0  0  0
 29105  1  0  0  0  0
 30 78  1  0  0  0  0
 30106  1  0  0  0  0
 31 32  1  0  0  0  0
 31 33  1  0  0  0  0
 31 79  1  0  0  0  0
 32 34  1  0  0  0  0
 32 80  1  0  0  0  0
 33 35  1  0  0  0  0
 33 81  1  0  0  0  0
 34 36  1  0  0  0  0
 34 82  1  0  0  0  0
 35 83  1  0  0  0  0
 36 84  1  0  0  0  0
 36 85  1  0  0  0  0
 37 40  1  0  0  0  0
 38 41  1  0  0  0  0
 39 42  1  0  0  0  0
 40 43  1  0  0  0  0
 40 50  2  0  0  0  0
 41 45  1  0  0  0  0
 41 51  2  0  0  0  0
 42 44  1  0  0  0  0
 42 52  2  0  0  0  0
 43 44  1  0  0  0  0
 43 54  2  0  0  0  0
 44 55  2  0  0  0  0
 45 46  1  0  0  0  0
 45 56  2  0  0  0  0
 46 48  1  0  0  0  0
 46 58  2  0  0  0  0
 47 59  1  0  0  0  0
 48 49  2  0  0  0  0
 48 69  1  0  0  0  0
 49 53  1  0  0  0  0
 49 57  1  0  0  0  0
 50 62  1  0  0  0  0
 50 87  1  0  0  0  0
 51 65  1  0  0  0  0
 51 88  1  0  0  0  0
 52 66  1  0  0  0  0
 52 89  1  0  0  0  0
 53 60  2  0  0  0  0
 53 61  1  0  0  0  0
 54 64  1  0  0  0  0
 55 67  1  0  0  0  0
 56 68  1  0  0  0  0
 57 63  2  0  0  0  0
 58 63  1  0  0  0  0
 59 70  1  0  0  0  0
 59 75  2  0  0  0  0
 60 71  1  0  0  0  0
 61 73  2  0  0  0  0
 61 74  1  0  0  0  0
 62 64  2  0  0  0  0
 65 68  2  0  0  0  0
 66 67  2  0  0  0  0
 70 76  2  0  0  0  0
 71 72  2  0  0  0  0
 72 73  1  0  0  0  0
 73 90  1  0  0  0  0
 75 77  1  0  0  0  0
 75 91  1  0  0  0  0
 76 78  1  0  0  0  0
 77 78  2  0  0  0  0
M  END
> <PUBCHEM_COMPOUND_CID>
16175789

> <PUBCHEM_COMPOUND_CANONICALIZED>
1

> <PUBCHEM_CACTVS_COMPLEXITY>
2360

> <PUBCHEM_CACTVS_HBOND_ACCEPTOR>
30

> <PUBCHEM_CACTVS_HBOND_DONOR>
16

> <PUBCHEM_CACTVS_ROTATABLE_BOND>
0

> <PUBCHEM_CACTVS_SUBSKEYS>
AAADceB8PgAAAAAAAAAAAAAAAAAAAAAAAAA0aNGDAAAAAACRVAAAGgAACAAADBSwmAMwDoAABgCIAiDSCAACCAAkIAAAiAEGiMgdNzaGNBqCe2Ol4BUPuYfK7PzOoQADCAAYQABCAAYQADCAAAAAAAAAAA==

> <PUBCHEM_IUPAC_OPENEYE_NAME>
4,5,6,14,20,21,22,25,26,27,38,39,40,43,44,55-hexadecahydroxy-2,10,13,16,31,34,46,53-octaoxaundecacyclo[46.7.1.03,8.012,33.015,32.018,23.024,29.036,41.042,51.045,50.049,54]hexapentaconta-1(55),3,5,7,18,20,22,24,26,28,36,38,40,42,44,48(56),49(54),50-octadecaene-9,17,30,35,47,52-hexone

> <PUBCHEM_IUPAC_CAS_NAME>
4,5,6,14,20,21,22,25,26,27,38,39,40,43,44,55-hexadecahydroxy-2,10,13,16,31,34,46,53-octaoxaundecacyclo[46.7.1.03,8.012,33.015,32.018,23.024,29.036,41.042,51.045,50.049,54]hexapentaconta-1(55),3,5,7,18,20,22,24,26,28,36,38,40,42,44,48(56),49(54),50-octadecaene-9,17,30,35,47,52-hexone

> <PUBCHEM_IUPAC_NAME_MARKUP>
4,5,6,14,20,21,22,25,26,27,38,39,40,43,44,55-hexadecahydroxy-2,10,13,16,31,34,46,53-octaoxaundecacyclo[46.7.1.0<SUP>3,8</SUP>.0<SUP>12,33</SUP>.0<SUP>15,32</SUP>.0<SUP>18,23</SUP>.0<SUP>24,29</SUP>.0<SUP>36,41</SUP>.0<SUP>42,51</SUP>.0<SUP>45,50</SUP>.0<SUP>49,54</SUP>]hexapentaconta-1(55),3,5,7,18,20,22,24,26,28,36,38,40,42,44,48(56),49(54),50-octadecaene-9,17,30,35,47,52-hexone

> <PUBCHEM_IUPAC_NAME>
4,5,6,14,20,21,22,25,26,27,38,39,40,43,44,55-hexadecahydroxy-2,10,13,16,31,34,46,53-octaoxaundecacyclo[46.7.1.03,8.012,33.015,32.018,23.024,29.036,41.042,51.045,50.049,54]hexapentaconta-1(55),3,5,7,18,20,22,24,26,28,36,38,40,42,44,48(56),49(54),50-octadecaene-9,17,30,35,47,52-hexone

> <PUBCHEM_IUPAC_SYSTEMATIC_NAME>
4,5,6,14,20,21,22,25,26,27,38,39,40,43,44,55-hexadecakis(oxidanyl)-2,10,13,16,31,34,46,53-octaoxaundecacyclo[46.7.1.03,8.012,33.015,32.018,23.024,29.036,41.042,51.045,50.049,54]hexapentaconta-1(55),3,5,7,18,20,22,24,26,28,36,38,40,42,44,48(56),49(54),50-octadecaene-9,17,30,35,47,52-hexone

> <PUBCHEM_IUPAC_TRADITIONAL_NAME>
4,5,6,14,20,21,22,25,26,27,38,39,40,43,44,55-hexadecahydroxy-2,10,13,16,31,34,46,53-octaoxaundecacyclo[46.7.1.03,8.012,33.015,32.018,23.024,29.036,41.042,51.045,50.049,54]hexapentaconta-1(55),3,5,7,18,20,22,24,26,28,36,38,40,42,44,48(56),49(54),50-octadecaene-9,17,30,35,47,52-triquinone

> <PUBCHEM_IUPAC_INCHI>
InChI=1S/C48H28O30/c49-12-1-7-18(30(58)25(12)53)19-8(2-13(50)26(54)31(19)59)45(67)78-41-40(77-44(7)66)37-17(73-48(41)70)6-71-42(64)11-4-15(52)28(56)34(62)36(11)72-16-5-10-21-23-24(47(69)76-38(21)29(16)57)22(33(61)35(63)39(23)75-46(10)68)20-9(43(65)74-37)3-14(51)27(55)32(20)60/h1-5,17,37,40-41,48-63,70H,6H2

> <PUBCHEM_IUPAC_INCHIKEY>
XLTUFSWXCLUYIA-UHFFFAOYSA-N

> <PUBCHEM_XLOGP3_AA>
2

> <PUBCHEM_EXACT_MASS>
1084.066539

> <PUBCHEM_MOLECULAR_FORMULA>
C48H28O30

> <PUBCHEM_MOLECULAR_WEIGHT>
1084.7

> <PUBCHEM_OPENEYE_CAN_SMILES>
C1C2C(C3C(C(O2)O)OC(=O)C4=CC(=C(C(=C4C5=C(C(=C(C=C5C(=O)O3)O)O)O)O)O)O)OC(=O)C6=CC(=C(C(=C6C7=C(C(=C8C9=C7C(=O)OC2=C9C(=CC(=C2O)OC2=C(C(=C(C=C2C(=O)O1)O)O)O)C(=O)O8)O)O)O)O)O

> <PUBCHEM_OPENEYE_ISO_SMILES>
C1C2C(C3C(C(O2)O)OC(=O)C4=CC(=C(C(=C4C5=C(C(=C(C=C5C(=O)O3)O)O)O)O)O)O)OC(=O)C6=CC(=C(C(=C6C7=C(C(=C8C9=C7C(=O)OC2=C9C(=CC(=C2O)OC2=C(C(=C(C=C2C(=O)O1)O)O)O)C(=O)O8)O)O)O)O)O

> <PUBCHEM_CACTVS_TPSA>
500

> <PUBCHEM_MONOISOTOPIC_WEIGHT>
1084.066539

> <PUBCHEM_TOTAL_CHARGE>
0

> <PUBCHEM_HEAVY_ATOM_COUNT>
78

> <PUBCHEM_ATOM_DEF_STEREO_COUNT>
0

> <PUBCHEM_ATOM_UDEF_STEREO_COUNT>
5

> <PUBCHEM_BOND_DEF_STEREO_COUNT>
0

> <PUBCHEM_BOND_UDEF_STEREO_COUNT>
0

> <PUBCHEM_ISOTOPIC_ATOM_COUNT>
0

> <PUBCHEM_COMPONENT_COUNT>
1

> <PUBCHEM_CACTVS_TAUTO_COUNT>
-1

> <PUBCHEM_COORDINATE_TYPE>
1
5
255

> <PUBCHEM_BONDANNOTATIONS>
10  60  8
10  69  8
11  57  8
11  74  8
31  2  3
32  3  3
34  36  3
33  4  3
40  43  8
40  50  8
41  45  8
41  51  8
42  44  8
42  52  8
43  54  8
44  55  8
45  56  8
46  48  8
46  58  8
48  49  8
48  69  8
49  53  8
49  57  8
35  5  3
50  62  8
51  65  8
52  66  8
53  60  8
53  61  8
54  64  8
55  67  8
56  68  8
57  63  8
58  63  8
59  70  8
59  75  8
60  71  8
61  73  8
61  74  8
62  64  8
65  68  8
66  67  8
70  76  8
71  72  8
72  73  8
75  77  8
76  78  8
77  78  8

$$$$
