5377693
  -OEChem-08272012152D

 99104  0     1  0  0  0  0  0999 V2000
    8.6036   -2.9376    0.0000 O   0  0  0  0  0  0  0  0  0  0  0  0
   17.5287    0.1489    0.0000 O   0  0  0  0  0  0  0  0  0  0  0  0
   16.6743   -1.3577    0.0000 O   0  0  0  0  0  0  0  0  0  0  0  0
   16.6454    3.8009    0.0000 O   0  0  0  0  0  0  0  0  0  0  0  0
    7.7434   -1.4343    0.0000 O   0  0  0  0  0  0  0  0  0  0  0  0
    2.5357   -4.4142    0.0000 O   0  0  0  0  0  0  0  0  0  0  0  0
   13.1307   -1.3853    0.0000 C   0  0  3  0  0  0  0  0  0  0  0  0
   12.2647   -0.8853    0.0000 C   0  0  3  0  0  0  0  0  0  0  0  0
   11.3547   -1.3921    0.0000 C   0  0  3  0  0  0  0  0  0  0  0  0
   13.9967   -0.8853    0.0000 C   0  0  3  0  0  0  0  0  0  0  0  0
   11.3467   -2.4337    0.0000 C   0  0  3  0  0  0  0  0  0  0  0  0
   13.1468   -2.4268    0.0000 C   0  0  0  0  0  0  0  0  0  0  0  0
   13.9967    0.1147    0.0000 C   0  0  0  0  0  0  0  0  0  0  0  0
   12.2487   -2.9545    0.0000 C   0  0  0  0  0  0  0  0  0  0  0  0
   10.4112   -2.9834    0.0000 C   0  0  0  0  0  0  0  0  0  0  0  0
   14.8907    0.6494    0.0000 C   0  0  3  0  0  0  0  0  0  0  0  0
   12.2647    0.1147    0.0000 C   0  0  0  0  0  0  0  0  0  0  0  0
   14.8907   -1.4199    0.0000 C   0  0  0  0  0  0  0  0  0  0  0  0
   10.4278   -0.8280    0.0000 C   0  0  0  0  0  0  0  0  0  0  0  0
   15.7967    0.1356    0.0000 C   0  0  3  0  0  0  0  0  0  0  0  0
   13.7735   -2.1513    0.0000 C   0  0  0  0  0  0  0  0  0  0  0  0
   15.7967   -0.9061    0.0000 C   0  0  0  0  0  0  0  0  0  0  0  0
    9.4716   -2.4409    0.0000 C   0  0  3  0  0  0  0  0  0  0  0  0
   13.1307    0.6147    0.0000 C   0  0  0  0  0  0  0  0  0  0  0  0
   11.3624   -0.3921    0.0000 C   0  0  0  0  0  0  0  0  0  0  0  0
    9.4800   -1.3560    0.0000 C   0  0  0  0  0  0  0  0  0  0  0  0
   14.3389   -1.8249    0.0000 C   0  0  0  0  0  0  0  0  0  0  0  0
   14.8656    1.7341    0.0000 C   0  0  3  0  0  0  0  0  0  0  0  0
   16.7405    0.6708    0.0000 C   0  0  0  0  0  0  0  0  0  0  0  0
   15.7967    2.2910    0.0000 C   0  0  3  0  0  0  0  0  0  0  0  0
    9.9146   -3.8514    0.0000 C   0  0  0  0  0  0  0  0  0  0  0  0
   10.9146   -3.8475    0.0000 C   0  0  0  0  0  0  0  0  0  0  0  0
   16.7405    1.7558    0.0000 C   0  0  0  0  0  0  0  0  0  0  0  0
   16.6666   -0.3578    0.0000 C   0  0  0  0  0  0  0  0  0  0  0  0
   13.9901    2.2173    0.0000 C   0  0  0  0  0  0  0  0  0  0  0  0
   15.7852    3.2910    0.0000 C   0  0  0  0  0  0  0  0  0  0  0  0
    7.7396   -2.4343    0.0000 C   0  0  0  0  0  0  0  0  0  0  0  0
    6.8716   -2.9309    0.0000 C   0  0  0  0  0  0  0  0  0  0  0  0
    6.0075   -2.4276    0.0000 C   0  0  0  0  0  0  0  0  0  0  0  0
    5.1396   -2.9242    0.0000 C   0  0  0  0  0  0  0  0  0  0  0  0
    5.1357   -3.9242    0.0000 C   0  0  0  0  0  0  0  0  0  0  0  0
    4.2755   -2.4209    0.0000 C   0  0  0  0  0  0  0  0  0  0  0  0
    4.2678   -4.4209    0.0000 C   0  0  0  0  0  0  0  0  0  0  0  0
    3.4075   -2.9176    0.0000 C   0  0  0  0  0  0  0  0  0  0  0  0
    3.4037   -3.9176    0.0000 C   0  0  0  0  0  0  0  0  0  0  0  0
   12.8016   -0.5753    0.0000 H   0  0  0  0  0  0  0  0  0  0  0  0
   11.3490   -3.0537    0.0000 H   0  0  0  0  0  0  0  0  0  0  0  0
   13.3648   -3.0072    0.0000 H   0  0  0  0  0  0  0  0  0  0  0  0
   13.7559   -2.3113    0.0000 H   0  0  0  0  0  0  0  0  0  0  0  0
   11.8514   -3.4305    0.0000 H   0  0  0  0  0  0  0  0  0  0  0  0
   12.6497   -3.4274    0.0000 H   0  0  0  0  0  0  0  0  0  0  0  0
   14.3479    0.9490    0.0000 H   0  0  0  0  0  0  0  0  0  0  0  0
   12.0526    0.6973    0.0000 H   0  0  0  0  0  0  0  0  0  0  0  0
   11.6541    0.0071    0.0000 H   0  0  0  0  0  0  0  0  0  0  0  0
   14.4861   -1.8897    0.0000 H   0  0  0  0  0  0  0  0  0  0  0  0
   15.2843   -1.8989    0.0000 H   0  0  0  0  0  0  0  0  0  0  0  0
   10.8361   -0.3614    0.0000 H   0  0  0  0  0  0  0  0  0  0  0  0
   10.0379   -0.3460    0.0000 H   0  0  0  0  0  0  0  0  0  0  0  0
   13.2985   -2.5498    0.0000 H   0  0  0  0  0  0  0  0  0  0  0  0
   14.1720   -2.6263    0.0000 H   0  0  0  0  0  0  0  0  0  0  0  0
   14.2484   -1.7528    0.0000 H   0  0  0  0  0  0  0  0  0  0  0  0
   16.0058   -1.4898    0.0000 H   0  0  0  0  0  0  0  0  0  0  0  0
   16.4076   -0.8000    0.0000 H   0  0  0  0  0  0  0  0  0  0  0  0
    9.4704   -3.0609    0.0000 H   0  0  0  0  0  0  0  0  0  0  0  0
   13.1307    1.2347    0.0000 H   0  0  0  0  0  0  0  0  0  0  0  0
   11.9824   -0.3969    0.0000 H   0  0  0  0  0  0  0  0  0  0  0  0
   11.3672    0.2278    0.0000 H   0  0  0  0  0  0  0  0  0  0  0  0
   10.7424   -0.3874    0.0000 H   0  0  0  0  0  0  0  0  0  0  0  0
    9.2754   -0.7707    0.0000 H   0  0  0  0  0  0  0  0  0  0  0  0
    8.8683   -1.4574    0.0000 H   0  0  0  0  0  0  0  0  0  0  0  0
   14.8548    2.3540    0.0000 H   0  0  0  0  0  0  0  0  0  0  0  0
   13.7563   -2.0370    0.0000 H   0  0  0  0  0  0  0  0  0  0  0  0
   14.5510   -2.4075    0.0000 H   0  0  0  0  0  0  0  0  0  0  0  0
   14.9214   -1.6128    0.0000 H   0  0  0  0  0  0  0  0  0  0  0  0
   16.9496    0.0871    0.0000 H   0  0  0  0  0  0  0  0  0  0  0  0
   17.3514    0.7769    0.0000 H   0  0  0  0  0  0  0  0  0  0  0  0
   15.2557    2.5938    0.0000 H   0  0  0  0  0  0  0  0  0  0  0  0
    9.3764   -3.5434    0.0000 H   0  0  0  0  0  0  0  0  0  0  0  0
    9.6066   -4.3895    0.0000 H   0  0  0  0  0  0  0  0  0  0  0  0
   10.4527   -4.1593    0.0000 H   0  0  0  0  0  0  0  0  0  0  0  0
   10.3788   -4.1596    0.0000 H   0  0  0  0  0  0  0  0  0  0  0  0
   11.2266   -4.3833    0.0000 H   0  0  0  0  0  0  0  0  0  0  0  0
   11.4503   -3.5355    0.0000 H   0  0  0  0  0  0  0  0  0  0  0  0
   17.3514    1.6497    0.0000 H   0  0  0  0  0  0  0  0  0  0  0  0
   16.9496    2.3395    0.0000 H   0  0  0  0  0  0  0  0  0  0  0  0
   14.2897    2.7601    0.0000 H   0  0  0  0  0  0  0  0  0  0  0  0
   13.4473    2.5169    0.0000 H   0  0  0  0  0  0  0  0  0  0  0  0
   13.6905    1.6745    0.0000 H   0  0  0  0  0  0  0  0  0  0  0  0
   15.5664    3.8711    0.0000 H   0  0  0  0  0  0  0  0  0  0  0  0
   15.1759    3.1762    0.0000 H   0  0  0  0  0  0  0  0  0  0  0  0
   18.0681   -0.1569    0.0000 H   0  0  0  0  0  0  0  0  0  0  0  0
   16.6382    4.4209    0.0000 H   0  0  0  0  0  0  0  0  0  0  0  0
    6.8692   -3.5509    0.0000 H   0  0  0  0  0  0  0  0  0  0  0  0
    6.0099   -1.8076    0.0000 H   0  0  0  0  0  0  0  0  0  0  0  0
    5.6715   -4.2363    0.0000 H   0  0  0  0  0  0  0  0  0  0  0  0
    4.2779   -1.8009    0.0000 H   0  0  0  0  0  0  0  0  0  0  0  0
    4.2654   -5.0409    0.0000 H   0  0  0  0  0  0  0  0  0  0  0  0
    2.8718   -2.6055    0.0000 H   0  0  0  0  0  0  0  0  0  0  0  0
    2.0000   -4.1022    0.0000 H   0  0  0  0  0  0  0  0  0  0  0  0
  1 23  1  0  0  0  0
  1 37  1  0  0  0  0
  2 34  1  0  0  0  0
  2 91  1  0  0  0  0
  3 34  2  0  0  0  0
  4 36  1  0  0  0  0
  4 92  1  0  0  0  0
  5 37  2  0  0  0  0
  6 45  1  0  0  0  0
  6 99  1  0  0  0  0
  7  8  1  0  0  0  0
  7 10  1  0  0  0  0
  7 12  1  0  0  0  0
  7 21  1  0  0  0  0
  8  9  1  0  0  0  0
  8 17  1  0  0  0  0
  8 46  1  0  0  0  0
  9 11  1  0  0  0  0
  9 19  1  0  0  0  0
  9 25  1  0  0  0  0
 10 13  1  0  0  0  0
 10 18  1  0  0  0  0
 10 27  1  0  0  0  0
 11 14  1  0  0  0  0
 11 15  1  0  0  0  0
 11 47  1  0  0  0  0
 12 14  1  0  0  0  0
 12 48  1  0  0  0  0
 12 49  1  0  0  0  0
 13 16  1  0  0  0  0
 13 24  2  0  0  0  0
 14 50  1  0  0  0  0
 14 51  1  0  0  0  0
 15 23  1  0  0  0  0
 15 31  1  0  0  0  0
 15 32  1  0  0  0  0
 16 20  1  0  0  0  0
 16 28  1  0  0  0  0
 16 52  1  0  0  0  0
 17 24  1  0  0  0  0
 17 53  1  0  0  0  0
 17 54  1  0  0  0  0
 18 22  1  0  0  0  0
 18 55  1  0  0  0  0
 18 56  1  0  0  0  0
 19 26  1  0  0  0  0
 19 57  1  0  0  0  0
 19 58  1  0  0  0  0
 20 22  1  0  0  0  0
 20 29  1  0  0  0  0
 20 34  1  0  0  0  0
 21 59  1  0  0  0  0
 21 60  1  0  0  0  0
 21 61  1  0  0  0  0
 22 62  1  0  0  0  0
 22 63  1  0  0  0  0
 23 26  1  0  0  0  0
 23 64  1  0  0  0  0
 24 65  1  0  0  0  0
 25 66  1  0  0  0  0
 25 67  1  0  0  0  0
 25 68  1  0  0  0  0
 26 69  1  0  0  0  0
 26 70  1  0  0  0  0
 27 72  1  0  0  0  0
 27 73  1  0  0  0  0
 27 74  1  0  0  0  0
 28 30  1  0  0  0  0
 28 35  1  0  0  0  0
 28 71  1  0  0  0  0
 29 33  1  0  0  0  0
 29 75  1  0  0  0  0
 29 76  1  0  0  0  0
 30 33  1  0  0  0  0
 30 36  1  0  0  0  0
 30 77  1  0  0  0  0
 31 78  1  0  0  0  0
 31 79  1  0  0  0  0
 31 80  1  0  0  0  0
 32 81  1  0  0  0  0
 32 82  1  0  0  0  0
 32 83  1  0  0  0  0
 33 84  1  0  0  0  0
 33 85  1  0  0  0  0
 35 86  1  0  0  0  0
 35 87  1  0  0  0  0
 35 88  1  0  0  0  0
 36 89  1  0  0  0  0
 36 90  1  0  0  0  0
 37 38  1  0  0  0  0
 38 39  2  0  0  0  0
 38 93  1  0  0  0  0
 39 40  1  0  0  0  0
 39 94  1  0  0  0  0
 40 41  2  0  0  0  0
 40 42  1  0  0  0  0
 41 43  1  0  0  0  0
 41 95  1  0  0  0  0
 42 44  2  0  0  0  0
 42 96  1  0  0  0  0
 43 45  2  0  0  0  0
 43 97  1  0  0  0  0
 44 45  1  0  0  0  0
 44 98  1  0  0  0  0
M  END
> <PUBCHEM_COMPOUND_CID>
5377693

> <PUBCHEM_COMPOUND_CANONICALIZED>
1

> <PUBCHEM_CACTVS_COMPLEXITY>
1230

> <PUBCHEM_CACTVS_HBOND_ACCEPTOR>
6

> <PUBCHEM_CACTVS_HBOND_DONOR>
3

> <PUBCHEM_CACTVS_ROTATABLE_BOND>
6

> <PUBCHEM_CACTVS_SUBSKEYS>
AAADcfB8OAAAAAAAAAAAAAAAAAAAAAAAAAAwYMGDAAAAAADBAAAAGgAACAAADxSgmAIyDoAABgCIAiDSCAACAAAgIAAIiAEGCMgINjKCMRKCcAAkwBEIuYeIyPCPoAAAAAAAAADAAAYAADAAAAAAAAAAAA==

> <PUBCHEM_IUPAC_OPENEYE_NAME>
2-(hydroxymethyl)-10-[(E)-3-(4-hydroxyphenyl)prop-2-enoyl]oxy-1,6a,6b,9,9,12a-hexamethyl-2,3,4,5,6,6a,7,8,8a,10,11,12,13,14b-tetradecahydro-1H-picene-4a-carboxylic acid

> <PUBCHEM_IUPAC_CAS_NAME>
2-(hydroxymethyl)-10-[(E)-3-(4-hydroxyphenyl)-1-oxoprop-2-enoxy]-1,6a,6b,9,9,12a-hexamethyl-2,3,4,5,6,6a,7,8,8a,10,11,12,13,14b-tetradecahydro-1H-picene-4a-carboxylic acid

> <PUBCHEM_IUPAC_NAME_MARKUP>
2-(hydroxymethyl)-10-[(<I>E</I>)-3-(4-hydroxyphenyl)prop-2-enoyl]oxy-1,6<I>a</I>,6<I>b</I>,9,9,12<I>a</I>-hexamethyl-2,3,4,5,6,6<I>a</I>,7,8,8<I>a</I>,10,11,12,13,14<I>b</I>-tetradecahydro-1<I>H</I>-picene-4<I>a</I>-carboxylic acid

> <PUBCHEM_IUPAC_NAME>
2-(hydroxymethyl)-10-[(E)-3-(4-hydroxyphenyl)prop-2-enoyl]oxy-1,6a,6b,9,9,12a-hexamethyl-2,3,4,5,6,6a,7,8,8a,10,11,12,13,14b-tetradecahydro-1H-picene-4a-carboxylic acid

> <PUBCHEM_IUPAC_SYSTEMATIC_NAME>
2-(hydroxymethyl)-10-[(E)-3-(4-hydroxyphenyl)prop-2-enoyl]oxy-1,6a,6b,9,9,12a-hexamethyl-2,3,4,5,6,6a,7,8,8a,10,11,12,13,14b-tetradecahydro-1H-picene-4a-carboxylic acid

> <PUBCHEM_IUPAC_TRADITIONAL_NAME>
10-[(E)-3-(4-hydroxyphenyl)acryloyl]oxy-1,6a,6b,9,9,12a-hexamethyl-2-methylol-2,3,4,5,6,6a,7,8,8a,10,11,12,13,14b-tetradecahydro-1H-picene-4a-carboxylic acid

> <PUBCHEM_IUPAC_INCHI>
InChI=1S/C39H54O6/c1-24-26(23-40)15-20-39(34(43)44)22-21-37(5)28(33(24)39)12-13-30-36(4)18-17-31(35(2,3)29(36)16-19-38(30,37)6)45-32(42)14-9-25-7-10-27(41)11-8-25/h7-12,14,24,26,29-31,33,40-41H,13,15-23H2,1-6H3,(H,43,44)/b14-9+

> <PUBCHEM_IUPAC_INCHIKEY>
WENIKWFUTBDGAV-NTEUORMPSA-N

> <PUBCHEM_XLOGP3_AA>
8.2

> <PUBCHEM_EXACT_MASS>
618.392039

> <PUBCHEM_MOLECULAR_FORMULA>
C39H54O6

> <PUBCHEM_MOLECULAR_WEIGHT>
618.8

> <PUBCHEM_OPENEYE_CAN_SMILES>
CC1C(CCC2(C1C3=CCC4C5(CCC(C(C5CCC4(C3(CC2)C)C)(C)C)OC(=O)C=CC6=CC=C(C=C6)O)C)C(=O)O)CO

> <PUBCHEM_OPENEYE_ISO_SMILES>
CC1C(CCC2(C1C3=CCC4C5(CCC(C(C5CCC4(C3(CC2)C)C)(C)C)OC(=O)/C=C/C6=CC=C(C=C6)O)C)C(=O)O)CO

> <PUBCHEM_CACTVS_TPSA>
104

> <PUBCHEM_MONOISOTOPIC_WEIGHT>
618.392039

> <PUBCHEM_TOTAL_CHARGE>
0

> <PUBCHEM_HEAVY_ATOM_COUNT>
45

> <PUBCHEM_ATOM_DEF_STEREO_COUNT>
0

> <PUBCHEM_ATOM_UDEF_STEREO_COUNT>
10

> <PUBCHEM_BOND_DEF_STEREO_COUNT>
1

> <PUBCHEM_BOND_UDEF_STEREO_COUNT>
0

> <PUBCHEM_ISOTOPIC_ATOM_COUNT>
0

> <PUBCHEM_COMPONENT_COUNT>
1

> <PUBCHEM_CACTVS_TAUTO_COUNT>
-1

> <PUBCHEM_COORDINATE_TYPE>
1
5
255

> <PUBCHEM_BONDANNOTATIONS>
23  1  3
10  27  3
11  14  3
16  13  3
20  34  3
28  35  3
30  36  3
40  41  8
40  42  8
41  43  8
42  44  8
43  45  8
44  45  8
7  21  3
8  17  3
9  25  3

$$$$
