14177660
  -OEChem-09232016342D

 83 83  0     0  0  0  0  0  0999 V2000
    5.1350   -6.1900    0.0000 O   0  0  0  0  0  0  0  0  0  0  0  0
    3.4030   -6.1900    0.0000 O   0  0  0  0  0  0  0  0  0  0  0  0
    2.5369   -7.6900    0.0000 O   0  0  0  0  0  0  0  0  0  0  0  0
    2.5369   -9.6900    0.0000 O   0  0  0  0  0  0  0  0  0  0  0  0
    9.4651    2.3100    0.0000 C   0  0  0  0  0  0  0  0  0  0  0  0
   10.3312    2.8100    0.0000 C   0  0  0  0  0  0  0  0  0  0  0  0
    9.4651    1.3100    0.0000 C   0  0  0  0  0  0  0  0  0  0  0  0
   10.3312    3.8100    0.0000 C   0  0  0  0  0  0  0  0  0  0  0  0
    8.5991    0.8100    0.0000 C   0  0  0  0  0  0  0  0  0  0  0  0
   11.1972    4.3100    0.0000 C   0  0  0  0  0  0  0  0  0  0  0  0
    8.5991   -0.1900    0.0000 C   0  0  0  0  0  0  0  0  0  0  0  0
   11.1972    5.3100    0.0000 C   0  0  0  0  0  0  0  0  0  0  0  0
    7.7331   -0.6900    0.0000 C   0  0  0  0  0  0  0  0  0  0  0  0
   12.0632    5.8100    0.0000 C   0  0  0  0  0  0  0  0  0  0  0  0
    7.7331   -1.6900    0.0000 C   0  0  0  0  0  0  0  0  0  0  0  0
   12.0632    6.8100    0.0000 C   0  0  0  0  0  0  0  0  0  0  0  0
    6.8671   -2.1900    0.0000 C   0  0  0  0  0  0  0  0  0  0  0  0
   12.9292    7.3100    0.0000 C   0  0  0  0  0  0  0  0  0  0  0  0
    6.8671   -3.1900    0.0000 C   0  0  0  0  0  0  0  0  0  0  0  0
   12.9292    8.3100    0.0000 C   0  0  0  0  0  0  0  0  0  0  0  0
    6.0010   -3.6900    0.0000 C   0  0  0  0  0  0  0  0  0  0  0  0
   13.7953    8.8100    0.0000 C   0  0  0  0  0  0  0  0  0  0  0  0
    6.0010   -4.6900    0.0000 C   0  0  0  0  0  0  0  0  0  0  0  0
   13.7953    9.8100    0.0000 C   0  0  0  0  0  0  0  0  0  0  0  0
    5.1350   -5.1900    0.0000 C   0  0  0  0  0  0  0  0  0  0  0  0
   14.6613   10.3100    0.0000 C   0  0  0  0  0  0  0  0  0  0  0  0
    4.2690   -6.6900    0.0000 C   0  0  0  0  0  0  0  0  0  0  0  0
    4.2690   -7.6900    0.0000 C   0  0  0  0  0  0  0  0  0  0  0  0
    3.4030   -8.1900    0.0000 C   0  0  0  0  0  0  0  0  0  0  0  0
    5.1350   -8.1900    0.0000 C   0  0  0  0  0  0  0  0  0  0  0  0
    3.4030   -9.1900    0.0000 C   0  0  0  0  0  0  0  0  0  0  0  0
    5.1350   -9.1900    0.0000 C   0  0  0  0  0  0  0  0  0  0  0  0
    4.2690   -9.6900    0.0000 C   0  0  0  0  0  0  0  0  0  0  0  0
    9.2531    2.8926    0.0000 H   0  0  0  0  0  0  0  0  0  0  0  0
    8.8546    2.2023    0.0000 H   0  0  0  0  0  0  0  0  0  0  0  0
   10.5432    2.2274    0.0000 H   0  0  0  0  0  0  0  0  0  0  0  0
   10.9417    2.9177    0.0000 H   0  0  0  0  0  0  0  0  0  0  0  0
    9.6772    0.7274    0.0000 H   0  0  0  0  0  0  0  0  0  0  0  0
   10.0757    1.4177    0.0000 H   0  0  0  0  0  0  0  0  0  0  0  0
   10.1191    4.3926    0.0000 H   0  0  0  0  0  0  0  0  0  0  0  0
    9.7206    3.7023    0.0000 H   0  0  0  0  0  0  0  0  0  0  0  0
    8.3871    1.3926    0.0000 H   0  0  0  0  0  0  0  0  0  0  0  0
    7.9885    0.7023    0.0000 H   0  0  0  0  0  0  0  0  0  0  0  0
   11.4092    3.7274    0.0000 H   0  0  0  0  0  0  0  0  0  0  0  0
   11.8078    4.4177    0.0000 H   0  0  0  0  0  0  0  0  0  0  0  0
    8.8112   -0.7726    0.0000 H   0  0  0  0  0  0  0  0  0  0  0  0
    9.2097   -0.0823    0.0000 H   0  0  0  0  0  0  0  0  0  0  0  0
   10.9851    5.8926    0.0000 H   0  0  0  0  0  0  0  0  0  0  0  0
   10.5866    5.2023    0.0000 H   0  0  0  0  0  0  0  0  0  0  0  0
    7.5210   -0.1074    0.0000 H   0  0  0  0  0  0  0  0  0  0  0  0
    7.1225   -0.7977    0.0000 H   0  0  0  0  0  0  0  0  0  0  0  0
   12.2753    5.2274    0.0000 H   0  0  0  0  0  0  0  0  0  0  0  0
   12.6738    5.9177    0.0000 H   0  0  0  0  0  0  0  0  0  0  0  0
    7.9451   -2.2726    0.0000 H   0  0  0  0  0  0  0  0  0  0  0  0
    8.3437   -1.5823    0.0000 H   0  0  0  0  0  0  0  0  0  0  0  0
   11.8512    7.3926    0.0000 H   0  0  0  0  0  0  0  0  0  0  0  0
   11.4526    6.7023    0.0000 H   0  0  0  0  0  0  0  0  0  0  0  0
    6.6550   -1.6074    0.0000 H   0  0  0  0  0  0  0  0  0  0  0  0
    6.2565   -2.2977    0.0000 H   0  0  0  0  0  0  0  0  0  0  0  0
   13.1413    6.7274    0.0000 H   0  0  0  0  0  0  0  0  0  0  0  0
   13.5398    7.4177    0.0000 H   0  0  0  0  0  0  0  0  0  0  0  0
    7.0791   -3.7726    0.0000 H   0  0  0  0  0  0  0  0  0  0  0  0
    7.4776   -3.0823    0.0000 H   0  0  0  0  0  0  0  0  0  0  0  0
   12.7172    8.8926    0.0000 H   0  0  0  0  0  0  0  0  0  0  0  0
   12.3187    8.2023    0.0000 H   0  0  0  0  0  0  0  0  0  0  0  0
    5.7890   -3.1074    0.0000 H   0  0  0  0  0  0  0  0  0  0  0  0
    5.3905   -3.7977    0.0000 H   0  0  0  0  0  0  0  0  0  0  0  0
   14.0073    8.2274    0.0000 H   0  0  0  0  0  0  0  0  0  0  0  0
   14.4058    8.9177    0.0000 H   0  0  0  0  0  0  0  0  0  0  0  0
    6.2131   -5.2726    0.0000 H   0  0  0  0  0  0  0  0  0  0  0  0
    6.6116   -4.5823    0.0000 H   0  0  0  0  0  0  0  0  0  0  0  0
   13.5832   10.3926    0.0000 H   0  0  0  0  0  0  0  0  0  0  0  0
   13.1847    9.7023    0.0000 H   0  0  0  0  0  0  0  0  0  0  0  0
    4.9230   -4.6074    0.0000 H   0  0  0  0  0  0  0  0  0  0  0  0
    4.5244   -5.2977    0.0000 H   0  0  0  0  0  0  0  0  0  0  0  0
   14.9713    9.7731    0.0000 H   0  0  0  0  0  0  0  0  0  0  0  0
   15.1982   10.6200    0.0000 H   0  0  0  0  0  0  0  0  0  0  0  0
   14.3513   10.8469    0.0000 H   0  0  0  0  0  0  0  0  0  0  0  0
    5.6720   -7.8800    0.0000 H   0  0  0  0  0  0  0  0  0  0  0  0
    5.6720   -9.5000    0.0000 H   0  0  0  0  0  0  0  0  0  0  0  0
    4.2690  -10.3100    0.0000 H   0  0  0  0  0  0  0  0  0  0  0  0
    2.0000   -8.0000    0.0000 H   0  0  0  0  0  0  0  0  0  0  0  0
    2.5369  -10.3100    0.0000 H   0  0  0  0  0  0  0  0  0  0  0  0
  1 25  1  0  0  0  0
  1 27  1  0  0  0  0
  2 27  2  0  0  0  0
  3 29  1  0  0  0  0
  3 82  1  0  0  0  0
  4 31  1  0  0  0  0
  4 83  1  0  0  0  0
  5  6  1  0  0  0  0
  5  7  1  0  0  0  0
  5 34  1  0  0  0  0
  5 35  1  0  0  0  0
  6  8  1  0  0  0  0
  6 36  1  0  0  0  0
  6 37  1  0  0  0  0
  7  9  1  0  0  0  0
  7 38  1  0  0  0  0
  7 39  1  0  0  0  0
  8 10  1  0  0  0  0
  8 40  1  0  0  0  0
  8 41  1  0  0  0  0
  9 11  1  0  0  0  0
  9 42  1  0  0  0  0
  9 43  1  0  0  0  0
 10 12  1  0  0  0  0
 10 44  1  0  0  0  0
 10 45  1  0  0  0  0
 11 13  1  0  0  0  0
 11 46  1  0  0  0  0
 11 47  1  0  0  0  0
 12 14  1  0  0  0  0
 12 48  1  0  0  0  0
 12 49  1  0  0  0  0
 13 15  1  0  0  0  0
 13 50  1  0  0  0  0
 13 51  1  0  0  0  0
 14 16  1  0  0  0  0
 14 52  1  0  0  0  0
 14 53  1  0  0  0  0
 15 17  1  0  0  0  0
 15 54  1  0  0  0  0
 15 55  1  0  0  0  0
 16 18  1  0  0  0  0
 16 56  1  0  0  0  0
 16 57  1  0  0  0  0
 17 19  1  0  0  0  0
 17 58  1  0  0  0  0
 17 59  1  0  0  0  0
 18 20  1  0  0  0  0
 18 60  1  0  0  0  0
 18 61  1  0  0  0  0
 19 21  1  0  0  0  0
 19 62  1  0  0  0  0
 19 63  1  0  0  0  0
 20 22  1  0  0  0  0
 20 64  1  0  0  0  0
 20 65  1  0  0  0  0
 21 23  1  0  0  0  0
 21 66  1  0  0  0  0
 21 67  1  0  0  0  0
 22 24  1  0  0  0  0
 22 68  1  0  0  0  0
 22 69  1  0  0  0  0
 23 25  1  0  0  0  0
 23 70  1  0  0  0  0
 23 71  1  0  0  0  0
 24 26  1  0  0  0  0
 24 72  1  0  0  0  0
 24 73  1  0  0  0  0
 25 74  1  0  0  0  0
 25 75  1  0  0  0  0
 26 76  1  0  0  0  0
 26 77  1  0  0  0  0
 26 78  1  0  0  0  0
 27 28  1  0  0  0  0
 28 29  2  0  0  0  0
 28 30  1  0  0  0  0
 29 31  1  0  0  0  0
 30 32  2  0  0  0  0
 30 79  1  0  0  0  0
 31 33  2  0  0  0  0
 32 33  1  0  0  0  0
 32 80  1  0  0  0  0
 33 81  1  0  0  0  0
M  END
> <PUBCHEM_COMPOUND_CID>
14177660

> <PUBCHEM_COMPOUND_CANONICALIZED>
1

> <PUBCHEM_CACTVS_COMPLEXITY>
439

> <PUBCHEM_CACTVS_HBOND_ACCEPTOR>
4

> <PUBCHEM_CACTVS_HBOND_DONOR>
2

> <PUBCHEM_CACTVS_ROTATABLE_BOND>
23

> <PUBCHEM_CACTVS_SUBSKEYS>
AAADcfB4OAAAAAAAAAAAAAAAAAAAAAAAAAAwAAAAAAAAAAABAAAAGgAACAAADASgmAIyDoAABgCIAiDSCAACAAAkIAAIiAEGiMgJJzaCNRqCcUEl4BEJuYfKyLCOAAABAAAIQAAAAAIAABCAAAAAAAAAAA==

> <PUBCHEM_IUPAC_OPENEYE_NAME>
docosyl 2,3-dihydroxybenzoate

> <PUBCHEM_IUPAC_CAS_NAME>
2,3-dihydroxybenzoic acid docosyl ester

> <PUBCHEM_IUPAC_NAME_MARKUP>
docosyl 2,3-dihydroxybenzoate

> <PUBCHEM_IUPAC_NAME>
docosyl 2,3-dihydroxybenzoate

> <PUBCHEM_IUPAC_SYSTEMATIC_NAME>
docosyl 2,3-bis(oxidanyl)benzoate

> <PUBCHEM_IUPAC_TRADITIONAL_NAME>
2,3-dihydroxybenzoic acid behenyl ester

> <PUBCHEM_IUPAC_INCHI>
InChI=1S/C29H50O4/c1-2-3-4-5-6-7-8-9-10-11-12-13-14-15-16-17-18-19-20-21-25-33-29(32)26-23-22-24-27(30)28(26)31/h22-24,30-31H,2-21,25H2,1H3

> <PUBCHEM_IUPAC_INCHIKEY>
ZYHQORYZNVHDNT-UHFFFAOYSA-N

> <PUBCHEM_XLOGP3>
14

> <PUBCHEM_EXACT_MASS>
462.37091

> <PUBCHEM_MOLECULAR_FORMULA>
C29H50O4

> <PUBCHEM_MOLECULAR_WEIGHT>
462.7

> <PUBCHEM_OPENEYE_CAN_SMILES>
CCCCCCCCCCCCCCCCCCCCCCOC(=O)C1=C(C(=CC=C1)O)O

> <PUBCHEM_OPENEYE_ISO_SMILES>
CCCCCCCCCCCCCCCCCCCCCCOC(=O)C1=C(C(=CC=C1)O)O

> <PUBCHEM_CACTVS_TPSA>
66.8

> <PUBCHEM_MONOISOTOPIC_WEIGHT>
462.37091

> <PUBCHEM_TOTAL_CHARGE>
0

> <PUBCHEM_HEAVY_ATOM_COUNT>
33

> <PUBCHEM_ATOM_DEF_STEREO_COUNT>
0

> <PUBCHEM_ATOM_UDEF_STEREO_COUNT>
0

> <PUBCHEM_BOND_DEF_STEREO_COUNT>
0

> <PUBCHEM_BOND_UDEF_STEREO_COUNT>
0

> <PUBCHEM_ISOTOPIC_ATOM_COUNT>
0

> <PUBCHEM_COMPONENT_COUNT>
1

> <PUBCHEM_CACTVS_TAUTO_COUNT>
-1

> <PUBCHEM_COORDINATE_TYPE>
1
5
255

> <PUBCHEM_BONDANNOTATIONS>
28  29  8
28  30  8
29  31  8
30  32  8
31  33  8
32  33  8

$$$$
