46899084
  -OEChem-09232016202D

 71 71  0     0  0  0  0  0  0999 V2000
    5.1350   -4.4400    0.0000 O   0  0  0  0  0  0  0  0  0  0  0  0
    3.4030   -4.4400    0.0000 O   0  0  0  0  0  0  0  0  0  0  0  0
    2.5369   -5.9400    0.0000 O   0  0  0  0  0  0  0  0  0  0  0  0
    2.5369   -7.9400    0.0000 O   0  0  0  0  0  0  0  0  0  0  0  0
    9.4651    3.0600    0.0000 C   0  0  0  0  0  0  0  0  0  0  0  0
    9.4651    4.0600    0.0000 C   0  0  0  0  0  0  0  0  0  0  0  0
    8.5991    2.5600    0.0000 C   0  0  0  0  0  0  0  0  0  0  0  0
   10.3312    4.5600    0.0000 C   0  0  0  0  0  0  0  0  0  0  0  0
    8.5991    1.5600    0.0000 C   0  0  0  0  0  0  0  0  0  0  0  0
   10.3312    5.5600    0.0000 C   0  0  0  0  0  0  0  0  0  0  0  0
    7.7331    1.0600    0.0000 C   0  0  0  0  0  0  0  0  0  0  0  0
   11.1972    6.0600    0.0000 C   0  0  0  0  0  0  0  0  0  0  0  0
    7.7331    0.0600    0.0000 C   0  0  0  0  0  0  0  0  0  0  0  0
   11.1972    7.0600    0.0000 C   0  0  0  0  0  0  0  0  0  0  0  0
    6.8671   -0.4400    0.0000 C   0  0  0  0  0  0  0  0  0  0  0  0
   12.0632    7.5600    0.0000 C   0  0  0  0  0  0  0  0  0  0  0  0
    6.8671   -1.4400    0.0000 C   0  0  0  0  0  0  0  0  0  0  0  0
    6.0010   -1.9400    0.0000 C   0  0  0  0  0  0  0  0  0  0  0  0
   12.0632    8.5600    0.0000 C   0  0  0  0  0  0  0  0  0  0  0  0
   12.9292    7.0600    0.0000 C   0  0  0  0  0  0  0  0  0  0  0  0
    6.0010   -2.9400    0.0000 C   0  0  0  0  0  0  0  0  0  0  0  0
    5.1350   -3.4400    0.0000 C   0  0  0  0  0  0  0  0  0  0  0  0
    4.2690   -4.9400    0.0000 C   0  0  0  0  0  0  0  0  0  0  0  0
    4.2690   -5.9400    0.0000 C   0  0  0  0  0  0  0  0  0  0  0  0
    3.4030   -6.4400    0.0000 C   0  0  0  0  0  0  0  0  0  0  0  0
    5.1350   -6.4400    0.0000 C   0  0  0  0  0  0  0  0  0  0  0  0
    3.4030   -7.4400    0.0000 C   0  0  0  0  0  0  0  0  0  0  0  0
    5.1350   -7.4400    0.0000 C   0  0  0  0  0  0  0  0  0  0  0  0
    4.2690   -7.9400    0.0000 C   0  0  0  0  0  0  0  0  0  0  0  0
    9.6772    2.4774    0.0000 H   0  0  0  0  0  0  0  0  0  0  0  0
   10.0757    3.1677    0.0000 H   0  0  0  0  0  0  0  0  0  0  0  0
    8.3871    3.1426    0.0000 H   0  0  0  0  0  0  0  0  0  0  0  0
    7.9885    2.4523    0.0000 H   0  0  0  0  0  0  0  0  0  0  0  0
    9.2531    4.6426    0.0000 H   0  0  0  0  0  0  0  0  0  0  0  0
    8.8546    3.9523    0.0000 H   0  0  0  0  0  0  0  0  0  0  0  0
   10.5432    3.9774    0.0000 H   0  0  0  0  0  0  0  0  0  0  0  0
   10.9417    4.6677    0.0000 H   0  0  0  0  0  0  0  0  0  0  0  0
    8.8112    0.9774    0.0000 H   0  0  0  0  0  0  0  0  0  0  0  0
    9.2097    1.6677    0.0000 H   0  0  0  0  0  0  0  0  0  0  0  0
   10.1191    6.1426    0.0000 H   0  0  0  0  0  0  0  0  0  0  0  0
    9.7206    5.4523    0.0000 H   0  0  0  0  0  0  0  0  0  0  0  0
    7.5210    1.6426    0.0000 H   0  0  0  0  0  0  0  0  0  0  0  0
    7.1225    0.9523    0.0000 H   0  0  0  0  0  0  0  0  0  0  0  0
   11.4092    5.4774    0.0000 H   0  0  0  0  0  0  0  0  0  0  0  0
   11.8078    6.1677    0.0000 H   0  0  0  0  0  0  0  0  0  0  0  0
    7.9451   -0.5226    0.0000 H   0  0  0  0  0  0  0  0  0  0  0  0
    8.3437    0.1677    0.0000 H   0  0  0  0  0  0  0  0  0  0  0  0
   10.9851    7.6426    0.0000 H   0  0  0  0  0  0  0  0  0  0  0  0
   10.5866    6.9523    0.0000 H   0  0  0  0  0  0  0  0  0  0  0  0
    6.6550    0.1426    0.0000 H   0  0  0  0  0  0  0  0  0  0  0  0
    6.2565   -0.5477    0.0000 H   0  0  0  0  0  0  0  0  0  0  0  0
   12.6002    7.8700    0.0000 H   0  0  0  0  0  0  0  0  0  0  0  0
    7.0791   -2.0226    0.0000 H   0  0  0  0  0  0  0  0  0  0  0  0
    7.4776   -1.3323    0.0000 H   0  0  0  0  0  0  0  0  0  0  0  0
    5.7890   -1.3574    0.0000 H   0  0  0  0  0  0  0  0  0  0  0  0
    5.3905   -2.0477    0.0000 H   0  0  0  0  0  0  0  0  0  0  0  0
    6.2131   -3.5226    0.0000 H   0  0  0  0  0  0  0  0  0  0  0  0
    6.6116   -2.8323    0.0000 H   0  0  0  0  0  0  0  0  0  0  0  0
   12.6832    8.5600    0.0000 H   0  0  0  0  0  0  0  0  0  0  0  0
   12.0632    9.1800    0.0000 H   0  0  0  0  0  0  0  0  0  0  0  0
   11.4432    8.5600    0.0000 H   0  0  0  0  0  0  0  0  0  0  0  0
   12.6192    6.5231    0.0000 H   0  0  0  0  0  0  0  0  0  0  0  0
   13.4662    6.7500    0.0000 H   0  0  0  0  0  0  0  0  0  0  0  0
   13.2392    7.5969    0.0000 H   0  0  0  0  0  0  0  0  0  0  0  0
    4.9230   -2.8574    0.0000 H   0  0  0  0  0  0  0  0  0  0  0  0
    4.5244   -3.5477    0.0000 H   0  0  0  0  0  0  0  0  0  0  0  0
    5.6720   -6.1300    0.0000 H   0  0  0  0  0  0  0  0  0  0  0  0
    5.6720   -7.7500    0.0000 H   0  0  0  0  0  0  0  0  0  0  0  0
    4.2690   -8.5600    0.0000 H   0  0  0  0  0  0  0  0  0  0  0  0
    2.0000   -6.2500    0.0000 H   0  0  0  0  0  0  0  0  0  0  0  0
    2.5369   -8.5600    0.0000 H   0  0  0  0  0  0  0  0  0  0  0  0
  1 22  1  0  0  0  0
  1 23  1  0  0  0  0
  2 23  2  0  0  0  0
  3 25  1  0  0  0  0
  3 70  1  0  0  0  0
  4 27  1  0  0  0  0
  4 71  1  0  0  0  0
  5  6  1  0  0  0  0
  5  7  1  0  0  0  0
  5 30  1  0  0  0  0
  5 31  1  0  0  0  0
  6  8  1  0  0  0  0
  6 34  1  0  0  0  0
  6 35  1  0  0  0  0
  7  9  1  0  0  0  0
  7 32  1  0  0  0  0
  7 33  1  0  0  0  0
  8 10  1  0  0  0  0
  8 36  1  0  0  0  0
  8 37  1  0  0  0  0
  9 11  1  0  0  0  0
  9 38  1  0  0  0  0
  9 39  1  0  0  0  0
 10 12  1  0  0  0  0
 10 40  1  0  0  0  0
 10 41  1  0  0  0  0
 11 13  1  0  0  0  0
 11 42  1  0  0  0  0
 11 43  1  0  0  0  0
 12 14  1  0  0  0  0
 12 44  1  0  0  0  0
 12 45  1  0  0  0  0
 13 15  1  0  0  0  0
 13 46  1  0  0  0  0
 13 47  1  0  0  0  0
 14 16  1  0  0  0  0
 14 48  1  0  0  0  0
 14 49  1  0  0  0  0
 15 17  1  0  0  0  0
 15 50  1  0  0  0  0
 15 51  1  0  0  0  0
 16 19  1  0  0  0  0
 16 20  1  0  0  0  0
 16 52  1  0  0  0  0
 17 18  1  0  0  0  0
 17 53  1  0  0  0  0
 17 54  1  0  0  0  0
 18 21  1  0  0  0  0
 18 55  1  0  0  0  0
 18 56  1  0  0  0  0
 19 59  1  0  0  0  0
 19 60  1  0  0  0  0
 19 61  1  0  0  0  0
 20 62  1  0  0  0  0
 20 63  1  0  0  0  0
 20 64  1  0  0  0  0
 21 22  1  0  0  0  0
 21 57  1  0  0  0  0
 21 58  1  0  0  0  0
 22 65  1  0  0  0  0
 22 66  1  0  0  0  0
 23 24  1  0  0  0  0
 24 25  2  0  0  0  0
 24 26  1  0  0  0  0
 25 27  1  0  0  0  0
 26 28  2  0  0  0  0
 26 67  1  0  0  0  0
 27 29  2  0  0  0  0
 28 29  1  0  0  0  0
 28 68  1  0  0  0  0
 29 69  1  0  0  0  0
M  END
> <PUBCHEM_COMPOUND_CID>
46899084

> <PUBCHEM_COMPOUND_CANONICALIZED>
1

> <PUBCHEM_CACTVS_COMPLEXITY>
396

> <PUBCHEM_CACTVS_HBOND_ACCEPTOR>
4

> <PUBCHEM_CACTVS_HBOND_DONOR>
2

> <PUBCHEM_CACTVS_ROTATABLE_BOND>
18

> <PUBCHEM_CACTVS_SUBSKEYS>
AAADcfB4OAAAAAAAAAAAAAAAAAAAAAAAAAAwAAAAAAAAAAABAAAAGgAACAAADQSgmAIyDoAABgCIAiDSCAACAAAkIAAIiAEGiMgJJzaCNRqCcUEl4BEJuYfKyPCOAAABAAAIQAAAAAIAABCAAAAAAAAAAA==

> <PUBCHEM_IUPAC_OPENEYE_NAME>
16-methylheptadecyl 2,3-dihydroxybenzoate

> <PUBCHEM_IUPAC_CAS_NAME>
2,3-dihydroxybenzoic acid 16-methylheptadecyl ester

> <PUBCHEM_IUPAC_NAME_MARKUP>
16-methylheptadecyl 2,3-dihydroxybenzoate

> <PUBCHEM_IUPAC_NAME>
16-methylheptadecyl 2,3-dihydroxybenzoate

> <PUBCHEM_IUPAC_SYSTEMATIC_NAME>
16-methylheptadecyl 2,3-bis(oxidanyl)benzoate

> <PUBCHEM_IUPAC_TRADITIONAL_NAME>
2,3-dihydroxybenzoic acid 16-methylheptadecyl ester

> <PUBCHEM_IUPAC_INCHI>
InChI=1S/C25H42O4/c1-21(2)17-14-12-10-8-6-4-3-5-7-9-11-13-15-20-29-25(28)22-18-16-19-23(26)24(22)27/h16,18-19,21,26-27H,3-15,17,20H2,1-2H3

> <PUBCHEM_IUPAC_INCHIKEY>
BGBDYUJDNLVMOV-UHFFFAOYSA-N

> <PUBCHEM_XLOGP3>
11.6

> <PUBCHEM_EXACT_MASS>
406.30831

> <PUBCHEM_MOLECULAR_FORMULA>
C25H42O4

> <PUBCHEM_MOLECULAR_WEIGHT>
406.6

> <PUBCHEM_OPENEYE_CAN_SMILES>
CC(C)CCCCCCCCCCCCCCCOC(=O)C1=C(C(=CC=C1)O)O

> <PUBCHEM_OPENEYE_ISO_SMILES>
CC(C)CCCCCCCCCCCCCCCOC(=O)C1=C(C(=CC=C1)O)O

> <PUBCHEM_CACTVS_TPSA>
66.8

> <PUBCHEM_MONOISOTOPIC_WEIGHT>
406.30831

> <PUBCHEM_TOTAL_CHARGE>
0

> <PUBCHEM_HEAVY_ATOM_COUNT>
29

> <PUBCHEM_ATOM_DEF_STEREO_COUNT>
0

> <PUBCHEM_ATOM_UDEF_STEREO_COUNT>
0

> <PUBCHEM_BOND_DEF_STEREO_COUNT>
0

> <PUBCHEM_BOND_UDEF_STEREO_COUNT>
0

> <PUBCHEM_ISOTOPIC_ATOM_COUNT>
0

> <PUBCHEM_COMPONENT_COUNT>
1

> <PUBCHEM_CACTVS_TAUTO_COUNT>
-1

> <PUBCHEM_COORDINATE_TYPE>
1
5
255

> <PUBCHEM_BONDANNOTATIONS>
24  25  8
24  26  8
25  27  8
26  28  8
27  29  8
28  29  8

$$$$
