102165349
  -OEChem-09022014042D

132138  0     1  0  0  0  0  0999 V2000
   15.1959   -2.8968    0.0000 O   0  0  0  0  0  0  0  0  0  0  0  0
   14.6319   -3.2253    0.0000 O   0  0  0  0  0  0  0  0  0  0  0  0
   15.4804    0.3004    0.0000 O   0  0  0  0  0  0  0  0  0  0  0  0
   13.9746    0.5382    0.0000 O   0  0  0  0  0  0  0  0  0  0  0  0
   17.5136   -0.4653    0.0000 O   0  0  0  0  0  0  0  0  0  0  0  0
    9.4651   -4.0315    0.0000 O   0  0  0  0  0  0  0  0  0  0  0  0
   12.2426    0.5316    0.0000 O   0  0  0  0  0  0  0  0  0  0  0  0
    8.5991   -2.5315    0.0000 O   0  0  0  0  0  0  0  0  0  0  0  0
   18.2148    1.1185    0.0000 O   0  0  0  0  0  0  0  0  0  0  0  0
    6.0010   -4.0315    0.0000 O   0  0  0  0  0  0  0  0  0  0  0  0
    6.0010   -2.0315    0.0000 O   0  0  0  0  0  0  0  0  0  0  0  0
    4.2690   -2.0315    0.0000 O   0  0  0  0  0  0  0  0  0  0  0  0
    4.2690   -5.0315    0.0000 O   0  0  0  0  0  0  0  0  0  0  0  0
    2.5369   -4.0315    0.0000 O   0  0  0  0  0  0  0  0  0  0  0  0
   14.8464   -0.9584    0.0000 C   0  0  1  0  0  0  0  0  0  0  0  0
   14.8503   -1.9584    0.0000 C   0  0  2  0  0  0  0  0  0  0  0  0
   13.9862   -2.4618    0.0000 C   0  0  2  0  0  0  0  0  0  0  0  0
   13.1182   -1.9651    0.0000 C   0  0  1  0  0  0  0  0  0  0  0  0
   15.7915   -0.6500    0.0000 C   0  0  2  0  0  0  0  0  0  0  0  0
   13.9785   -0.4618    0.0000 C   0  0  1  0  0  0  0  0  0  0  0  0
   15.7977   -2.2595    0.0000 C   0  0  0  0  0  0  0  0  0  0  0  0
   12.2102   -2.4754    0.0000 C   0  0  2  0  0  0  0  0  0  0  0  0
   13.1144   -0.9651    0.0000 C   0  0  0  0  0  0  0  0  0  0  0  0
   16.3782   -1.4525    0.0000 C   0  0  0  0  0  0  0  0  0  0  0  0
   14.0063   -3.5032    0.0000 C   0  0  0  0  0  0  0  0  0  0  0  0
   14.8426    0.0416    0.0000 C   0  0  0  0  0  0  0  0  0  0  0  0
   12.2062   -3.5171    0.0000 C   0  0  0  0  0  0  0  0  0  0  0  0
   16.5992   -0.0605    0.0000 C   0  0  2  0  0  0  0  0  0  0  0  0
   11.2812   -1.9149    0.0000 C   0  0  0  0  0  0  0  0  0  0  0  0
   13.1103   -4.0344    0.0000 C   0  0  0  0  0  0  0  0  0  0  0  0
   12.2140   -1.4754    0.0000 C   0  0  0  0  0  0  0  0  0  0  0  0
   11.2729   -4.0704    0.0000 C   0  0  0  0  0  0  0  0  0  0  0  0
   10.3353   -2.4465    0.0000 C   0  0  0  0  0  0  0  0  0  0  0  0
   10.3312   -3.5315    0.0000 C   0  0  2  0  0  0  0  0  0  0  0  0
   16.4926    0.9338    0.0000 C   0  0  0  0  0  0  0  0  0  0  0  0
   13.1067    1.0349    0.0000 C   0  0  0  0  0  0  0  0  0  0  0  0
   18.3214    0.1242    0.0000 C   0  0  0  0  0  0  0  0  0  0  0  0
    8.5991   -3.5315    0.0000 C   0  0  2  0  0  0  0  0  0  0  0  0
   13.1028    2.0349    0.0000 C   0  0  0  0  0  0  0  0  0  0  0  0
   19.2358   -0.2806    0.0000 C   0  0  0  0  0  0  0  0  0  0  0  0
    7.7331   -4.0315    0.0000 C   0  0  0  0  0  0  0  0  0  0  0  0
    6.8671   -3.5315    0.0000 C   0  0  1  0  0  0  0  0  0  0  0  0
   20.0436    0.3089    0.0000 C   0  0  0  0  0  0  0  0  0  0  0  0
   12.2349    2.5315    0.0000 C   0  0  0  0  0  0  0  0  0  0  0  0
    7.7331   -2.0315    0.0000 C   0  0  1  0  0  0  0  0  0  0  0  0
    6.8671   -2.5315    0.0000 C   0  0  1  0  0  0  0  0  0  0  0  0
   20.9580   -0.0959    0.0000 C   0  0  0  0  0  0  0  0  0  0  0  0
   19.9369    1.3032    0.0000 C   0  0  0  0  0  0  0  0  0  0  0  0
    7.7331   -1.0315    0.0000 C   0  0  0  0  0  0  0  0  0  0  0  0
   12.2310    3.5315    0.0000 C   0  0  0  0  0  0  0  0  0  0  0  0
    5.1350   -2.5315    0.0000 C   0  0  2  0  0  0  0  0  0  0  0  0
   13.0951    4.0349    0.0000 C   0  0  0  0  0  0  0  0  0  0  0  0
   11.3631    4.0282    0.0000 C   0  0  0  0  0  0  0  0  0  0  0  0
    5.1350   -3.5315    0.0000 C   0  0  0  0  0  0  0  0  0  0  0  0
   13.0913    5.0349    0.0000 C   0  0  0  0  0  0  0  0  0  0  0  0
   11.3592    5.0282    0.0000 C   0  0  0  0  0  0  0  0  0  0  0  0
    4.2690   -4.0315    0.0000 C   0  0  2  0  0  0  0  0  0  0  0  0
    3.4030   -2.5315    0.0000 C   0  0  1  0  0  0  0  0  0  0  0  0
    3.4030   -3.5315    0.0000 C   0  0  1  0  0  0  0  0  0  0  0  0
   12.2233    5.5315    0.0000 C   0  0  0  0  0  0  0  0  0  0  0  0
    2.5369   -2.0315    0.0000 C   0  0  0  0  0  0  0  0  0  0  0  0
    5.1350   -5.5315    0.0000 C   0  0  0  0  0  0  0  0  0  0  0  0
   13.8527   -1.5372    0.0000 H   0  0  0  0  0  0  0  0  0  0  0  0
   13.4403   -0.1538    0.0000 H   0  0  0  0  0  0  0  0  0  0  0  0
   15.5488   -2.8274    0.0000 H   0  0  0  0  0  0  0  0  0  0  0  0
   16.3362   -2.5666    0.0000 H   0  0  0  0  0  0  0  0  0  0  0  0
   12.9001   -0.3833    0.0000 H   0  0  0  0  0  0  0  0  0  0  0  0
   12.5042   -1.0751    0.0000 H   0  0  0  0  0  0  0  0  0  0  0  0
   16.8406   -1.8655    0.0000 H   0  0  0  0  0  0  0  0  0  0  0  0
   16.8374   -1.0360    0.0000 H   0  0  0  0  0  0  0  0  0  0  0  0
   14.2265   -4.0827    0.0000 H   0  0  0  0  0  0  0  0  0  0  0  0
   14.6150   -3.3853    0.0000 H   0  0  0  0  0  0  0  0  0  0  0  0
   15.4626    0.0440    0.0000 H   0  0  0  0  0  0  0  0  0  0  0  0
   14.8402    0.6616    0.0000 H   0  0  0  0  0  0  0  0  0  0  0  0
   14.2226    0.0392    0.0000 H   0  0  0  0  0  0  0  0  0  0  0  0
   16.6653   -0.6770    0.0000 H   0  0  0  0  0  0  0  0  0  0  0  0
   11.6876   -1.4467    0.0000 H   0  0  0  0  0  0  0  0  0  0  0  0
   10.8894   -1.4344    0.0000 H   0  0  0  0  0  0  0  0  0  0  0  0
   13.1150   -4.6544    0.0000 H   0  0  0  0  0  0  0  0  0  0  0  0
   15.8069   -3.0021    0.0000 H   0  0  0  0  0  0  0  0  0  0  0  0
   12.8340   -1.4778    0.0000 H   0  0  0  0  0  0  0  0  0  0  0  0
   12.2164   -0.8555    0.0000 H   0  0  0  0  0  0  0  0  0  0  0  0
   11.5941   -1.4731    0.0000 H   0  0  0  0  0  0  0  0  0  0  0  0
   14.7420   -3.8355    0.0000 H   0  0  0  0  0  0  0  0  0  0  0  0
   10.8774   -4.5479    0.0000 H   0  0  0  0  0  0  0  0  0  0  0  0
   11.6757   -4.5417    0.0000 H   0  0  0  0  0  0  0  0  0  0  0  0
   15.8943    0.7620    0.0000 H   0  0  0  0  0  0  0  0  0  0  0  0
   10.1285   -1.8620    0.0000 H   0  0  0  0  0  0  0  0  0  0  0  0
    9.7241   -2.5503    0.0000 H   0  0  0  0  0  0  0  0  0  0  0  0
    9.7948   -3.2205    0.0000 H   0  0  0  0  0  0  0  0  0  0  0  0
   17.1090    0.9999    0.0000 H   0  0  0  0  0  0  0  0  0  0  0  0
   16.4265    1.5502    0.0000 H   0  0  0  0  0  0  0  0  0  0  0  0
   15.8761    0.8676    0.0000 H   0  0  0  0  0  0  0  0  0  0  0  0
    8.5991   -4.1515    0.0000 H   0  0  0  0  0  0  0  0  0  0  0  0
   13.6386    2.3470    0.0000 H   0  0  0  0  0  0  0  0  0  0  0  0
   18.8902   -0.7954    0.0000 H   0  0  0  0  0  0  0  0  0  0  0  0
   19.6827   -0.7104    0.0000 H   0  0  0  0  0  0  0  0  0  0  0  0
    7.3346   -4.5065    0.0000 H   0  0  0  0  0  0  0  0  0  0  0  0
    8.1316   -4.5065    0.0000 H   0  0  0  0  0  0  0  0  0  0  0  0
    6.3301   -3.2215    0.0000 H   0  0  0  0  0  0  0  0  0  0  0  0
   20.5444    0.6744    0.0000 H   0  0  0  0  0  0  0  0  0  0  0  0
   11.6991    2.2195    0.0000 H   0  0  0  0  0  0  0  0  0  0  0  0
    8.2700   -1.7215    0.0000 H   0  0  0  0  0  0  0  0  0  0  0  0
    6.8671   -1.9115    0.0000 H   0  0  0  0  0  0  0  0  0  0  0  0
   20.7070   -0.6629    0.0000 H   0  0  0  0  0  0  0  0  0  0  0  0
   21.5249   -0.3469    0.0000 H   0  0  0  0  0  0  0  0  0  0  0  0
   21.2090    0.4710    0.0000 H   0  0  0  0  0  0  0  0  0  0  0  0
   20.5534    1.3693    0.0000 H   0  0  0  0  0  0  0  0  0  0  0  0
   19.8708    1.9196    0.0000 H   0  0  0  0  0  0  0  0  0  0  0  0
   19.3205    1.2370    0.0000 H   0  0  0  0  0  0  0  0  0  0  0  0
    8.3531   -1.0315    0.0000 H   0  0  0  0  0  0  0  0  0  0  0  0
    7.7331   -0.4115    0.0000 H   0  0  0  0  0  0  0  0  0  0  0  0
    7.1131   -1.0315    0.0000 H   0  0  0  0  0  0  0  0  0  0  0  0
    6.0010   -4.6515    0.0000 H   0  0  0  0  0  0  0  0  0  0  0  0
    5.6720   -2.8415    0.0000 H   0  0  0  0  0  0  0  0  0  0  0  0
   13.6332    3.7269    0.0000 H   0  0  0  0  0  0  0  0  0  0  0  0
   10.8273    3.7161    0.0000 H   0  0  0  0  0  0  0  0  0  0  0  0
    5.3471   -4.1141    0.0000 H   0  0  0  0  0  0  0  0  0  0  0  0
    5.7456   -3.4239    0.0000 H   0  0  0  0  0  0  0  0  0  0  0  0
   13.6270    5.3469    0.0000 H   0  0  0  0  0  0  0  0  0  0  0  0
   10.8211    5.3361    0.0000 H   0  0  0  0  0  0  0  0  0  0  0  0
    4.8059   -4.3415    0.0000 H   0  0  0  0  0  0  0  0  0  0  0  0
    3.4030   -1.9115    0.0000 H   0  0  0  0  0  0  0  0  0  0  0  0
    3.4030   -4.1515    0.0000 H   0  0  0  0  0  0  0  0  0  0  0  0
   12.2209    6.1515    0.0000 H   0  0  0  0  0  0  0  0  0  0  0  0
    2.8469   -1.4946    0.0000 H   0  0  0  0  0  0  0  0  0  0  0  0
    2.0000   -1.7215    0.0000 H   0  0  0  0  0  0  0  0  0  0  0  0
    2.2269   -2.5684    0.0000 H   0  0  0  0  0  0  0  0  0  0  0  0
    2.0000   -3.7215    0.0000 H   0  0  0  0  0  0  0  0  0  0  0  0
    4.8250   -6.0684    0.0000 H   0  0  0  0  0  0  0  0  0  0  0  0
    5.6720   -5.8415    0.0000 H   0  0  0  0  0  0  0  0  0  0  0  0
    5.4450   -4.9946    0.0000 H   0  0  0  0  0  0  0  0  0  0  0  0
 16  1  1  1  0  0  0
  1 80  1  0  0  0  0
 17  2  1  1  0  0  0
  2 84  1  0  0  0  0
 19  3  1  1  0  0  0
  3 87  1  0  0  0  0
 20  4  1  1  0  0  0
  4 36  1  0  0  0  0
 28  5  1  6  0  0  0
  5 37  1  0  0  0  0
 34  6  1  1  0  0  0
 38  6  1  1  0  0  0
  7 36  2  0  0  0  0
  8 38  1  0  0  0  0
  8 45  1  0  0  0  0
  9 37  2  0  0  0  0
 42 10  1  6  0  0  0
 10114  1  0  0  0  0
 46 11  1  6  0  0  0
 51 11  1  1  0  0  0
 12 51  1  0  0  0  0
 12 58  1  0  0  0  0
 57 13  1  1  0  0  0
 13 62  1  0  0  0  0
 59 14  1  6  0  0  0
 14129  1  0  0  0  0
 15 16  1  0  0  0  0
 15 19  1  0  0  0  0
 15 20  1  0  0  0  0
 15 26  1  1  0  0  0
 16 17  1  0  0  0  0
 16 21  1  0  0  0  0
 17 18  1  0  0  0  0
 17 25  1  0  0  0  0
 18 22  1  0  0  0  0
 18 23  1  0  0  0  0
 18 63  1  6  0  0  0
 19 24  1  0  0  0  0
 19 28  1  0  0  0  0
 20 23  1  0  0  0  0
 20 64  1  0  0  0  0
 21 24  1  0  0  0  0
 21 65  1  0  0  0  0
 21 66  1  0  0  0  0
 22 27  1  0  0  0  0
 22 29  1  0  0  0  0
 22 31  1  1  0  0  0
 23 67  1  0  0  0  0
 23 68  1  0  0  0  0
 24 69  1  0  0  0  0
 24 70  1  0  0  0  0
 25 30  1  0  0  0  0
 25 71  1  0  0  0  0
 25 72  1  0  0  0  0
 26 73  1  0  0  0  0
 26 74  1  0  0  0  0
 26 75  1  0  0  0  0
 27 30  2  0  0  0  0
 27 32  1  0  0  0  0
 28 35  1  0  0  0  0
 28 76  1  0  0  0  0
 29 33  1  0  0  0  0
 29 77  1  0  0  0  0
 29 78  1  0  0  0  0
 30 79  1  0  0  0  0
 31 81  1  0  0  0  0
 31 82  1  0  0  0  0
 31 83  1  0  0  0  0
 32 34  1  0  0  0  0
 32 85  1  0  0  0  0
 32 86  1  0  0  0  0
 33 34  1  0  0  0  0
 33 88  1  0  0  0  0
 33 89  1  0  0  0  0
 34 90  1  0  0  0  0
 35 91  1  0  0  0  0
 35 92  1  0  0  0  0
 35 93  1  0  0  0  0
 36 39  1  0  0  0  0
 37 40  1  0  0  0  0
 38 41  1  0  0  0  0
 38 94  1  0  0  0  0
 39 44  2  0  0  0  0
 39 95  1  0  0  0  0
 40 43  1  0  0  0  0
 40 96  1  0  0  0  0
 40 97  1  0  0  0  0
 41 42  1  0  0  0  0
 41 98  1  0  0  0  0
 41 99  1  0  0  0  0
 42 46  1  0  0  0  0
 42100  1  0  0  0  0
 43 47  1  0  0  0  0
 43 48  1  0  0  0  0
 43101  1  0  0  0  0
 44 50  1  0  0  0  0
 44102  1  0  0  0  0
 45 46  1  0  0  0  0
 45 49  1  1  0  0  0
 45103  1  0  0  0  0
 46104  1  0  0  0  0
 47105  1  0  0  0  0
 47106  1  0  0  0  0
 47107  1  0  0  0  0
 48108  1  0  0  0  0
 48109  1  0  0  0  0
 48110  1  0  0  0  0
 49111  1  0  0  0  0
 49112  1  0  0  0  0
 49113  1  0  0  0  0
 50 52  2  0  0  0  0
 50 53  1  0  0  0  0
 51 54  1  0  0  0  0
 51115  1  0  0  0  0
 52 55  1  0  0  0  0
 52116  1  0  0  0  0
 53 56  2  0  0  0  0
 53117  1  0  0  0  0
 54 57  1  0  0  0  0
 54118  1  0  0  0  0
 54119  1  0  0  0  0
 55 60  2  0  0  0  0
 55120  1  0  0  0  0
 56 60  1  0  0  0  0
 56121  1  0  0  0  0
 57 59  1  0  0  0  0
 57122  1  0  0  0  0
 58 59  1  0  0  0  0
 58 61  1  1  0  0  0
 58123  1  0  0  0  0
 59124  1  0  0  0  0
 60125  1  0  0  0  0
 61126  1  0  0  0  0
 61127  1  0  0  0  0
 61128  1  0  0  0  0
 62130  1  0  0  0  0
 62131  1  0  0  0  0
 62132  1  0  0  0  0
M  END
> <PUBCHEM_COMPOUND_CID>
102165349

> <PUBCHEM_COMPOUND_CANONICALIZED>
1

> <PUBCHEM_CACTVS_COMPLEXITY>
1660

> <PUBCHEM_CACTVS_HBOND_ACCEPTOR>
14

> <PUBCHEM_CACTVS_HBOND_DONOR>
5

> <PUBCHEM_CACTVS_ROTATABLE_BOND>
14

> <PUBCHEM_CACTVS_SUBSKEYS>
AAADcfB8PAAAAAAAAAAAAAAAAAAAAYAAAAA0aMECAAAAAGCBAAAAGgAACAAAD1SwmAMyCIAABgCIAiDSCAACAAAgAAAIiAEAAMgZNDKAMRCicAAlwAAPqYfA4PwPgAAAAAAAAADCAAYQADCAAYQADAAAAA==

> <PUBCHEM_IUPAC_OPENEYE_NAME>
[(1S)-1-[(3S,8S,9R,10R,12R,13R,14R,17S)-8,14,17-trihydroxy-3-[(2R,4S,5S,6R)-4-hydroxy-5-[(2S,4R,5R,6R)-5-hydroxy-4-methoxy-6-methyl-tetrahydropyran-2-yl]oxy-6-methyl-tetrahydropyran-2-yl]oxy-10,13-dimethyl-12-[(E)-3-phenylprop-2-enoyl]oxy-1,2,3,4,7,9,11,12,15,16-decahydrocyclopenta[a]phenanthren-17-yl]ethyl] 3-methylbutanoate

> <PUBCHEM_IUPAC_CAS_NAME>
3-methylbutanoic acid [(1S)-1-[(3S,8S,9R,10R,12R,13R,14R,17S)-8,14,17-trihydroxy-3-[[(2R,4S,5S,6R)-4-hydroxy-5-[[(2S,4R,5R,6R)-5-hydroxy-4-methoxy-6-methyl-2-oxanyl]oxy]-6-methyl-2-oxanyl]oxy]-10,13-dimethyl-12-[(E)-1-oxo-3-phenylprop-2-enoxy]-1,2,3,4,7,9,11,12,15,16-decahydrocyclopenta[a]phenanthren-17-yl]ethyl] ester

> <PUBCHEM_IUPAC_NAME_MARKUP>
[(1<I>S</I>)-1-[(3<I>S</I>,8<I>S</I>,9<I>R</I>,10<I>R</I>,12<I>R</I>,13<I>R</I>,14<I>R</I>,17<I>S</I>)-8,14,17-trihydroxy-3-[(2<I>R</I>,4<I>S</I>,5<I>S</I>,6<I>R</I>)-4-hydroxy-5-[(2<I>S</I>,4<I>R</I>,5<I>R</I>,6<I>R</I>)-5-hydroxy-4-methoxy-6-methyloxan-2-yl]oxy-6-methyloxan-2-yl]oxy-10,13-dimethyl-12-[(<I>E</I>)-3-phenylprop-2-enoyl]oxy-1,2,3,4,7,9,11,12,15,16-decahydrocyclopenta[a]phenanthren-17-yl]ethyl] 3-methylbutanoate

> <PUBCHEM_IUPAC_NAME>
[(1S)-1-[(3S,8S,9R,10R,12R,13R,14R,17S)-8,14,17-trihydroxy-3-[(2R,4S,5S,6R)-4-hydroxy-5-[(2S,4R,5R,6R)-5-hydroxy-4-methoxy-6-methyloxan-2-yl]oxy-6-methyloxan-2-yl]oxy-10,13-dimethyl-12-[(E)-3-phenylprop-2-enoyl]oxy-1,2,3,4,7,9,11,12,15,16-decahydrocyclopenta[a]phenanthren-17-yl]ethyl] 3-methylbutanoate

> <PUBCHEM_IUPAC_SYSTEMATIC_NAME>
[(1S)-1-[(3S,8S,9R,10R,12R,13R,14R,17S)-3-[(2R,4S,5S,6R)-5-[(2S,4R,5R,6R)-4-methoxy-6-methyl-5-oxidanyl-oxan-2-yl]oxy-6-methyl-4-oxidanyl-oxan-2-yl]oxy-10,13-dimethyl-8,14,17-tris(oxidanyl)-12-[(E)-3-phenylprop-2-enoyl]oxy-1,2,3,4,7,9,11,12,15,16-decahydrocyclopenta[a]phenanthren-17-yl]ethyl] 3-methylbutanoate

> <PUBCHEM_IUPAC_TRADITIONAL_NAME>
3-methylbutyric acid [(1S)-1-[(3S,8S,9R,10R,12R,13R,14R,17S)-8,14,17-trihydroxy-3-[(2R,4S,5S,6R)-4-hydroxy-5-[(2S,4R,5R,6R)-5-hydroxy-4-methoxy-6-methyl-tetrahydropyran-2-yl]oxy-6-methyl-tetrahydropyran-2-yl]oxy-10,13-dimethyl-12-[(E)-3-phenylacryloyl]oxy-1,2,3,4,7,9,11,12,15,16-decahydrocyclopenta[a]phenanthren-17-yl]ethyl] ester

> <PUBCHEM_IUPAC_INCHI>
InChI=1S/C48H70O14/c1-27(2)22-39(51)59-30(5)46(53)20-21-48(55)45(46,7)37(61-38(50)15-14-31-12-10-9-11-13-31)26-36-44(6)18-17-33(23-32(44)16-19-47(36,48)54)60-40-24-34(49)43(29(4)58-40)62-41-25-35(56-8)42(52)28(3)57-41/h9-16,27-30,33-37,40-43,49,52-55H,17-26H2,1-8H3/b15-14+/t28-,29-,30+,33+,34+,35-,36-,37-,40+,41+,42-,43-,44+,45-,46-,47+,48-/m1/s1

> <PUBCHEM_IUPAC_INCHIKEY>
ADMBNTBVGLWGFH-UCTQXOLKSA-N

> <PUBCHEM_XLOGP3_AA>
4.5

> <PUBCHEM_EXACT_MASS>
870.476557

> <PUBCHEM_MOLECULAR_FORMULA>
C48H70O14

> <PUBCHEM_MOLECULAR_WEIGHT>
871.1

> <PUBCHEM_OPENEYE_CAN_SMILES>
CC1C(C(CC(O1)OC2C(OC(CC2O)OC3CCC4(C5CC(C6(C(CCC6(C5(CC=C4C3)O)O)(C(C)OC(=O)CC(C)C)O)C)OC(=O)C=CC7=CC=CC=C7)C)C)OC)O

> <PUBCHEM_OPENEYE_ISO_SMILES>
C[C@@H]1[C@H]([C@@H](C[C@@H](O1)O[C@@H]2[C@H](O[C@H](C[C@@H]2O)O[C@H]3CC[C@@]4([C@H]5C[C@H]([C@@]6([C@@](CC[C@@]6([C@@]5(CC=C4C3)O)O)([C@H](C)OC(=O)CC(C)C)O)C)OC(=O)/C=C/C7=CC=CC=C7)C)C)OC)O

> <PUBCHEM_CACTVS_TPSA>
200

> <PUBCHEM_MONOISOTOPIC_WEIGHT>
870.476557

> <PUBCHEM_TOTAL_CHARGE>
0

> <PUBCHEM_HEAVY_ATOM_COUNT>
62

> <PUBCHEM_ATOM_DEF_STEREO_COUNT>
17

> <PUBCHEM_ATOM_UDEF_STEREO_COUNT>
0

> <PUBCHEM_BOND_DEF_STEREO_COUNT>
1

> <PUBCHEM_BOND_UDEF_STEREO_COUNT>
0

> <PUBCHEM_ISOTOPIC_ATOM_COUNT>
0

> <PUBCHEM_COMPONENT_COUNT>
1

> <PUBCHEM_CACTVS_TAUTO_COUNT>
-1

> <PUBCHEM_COORDINATE_TYPE>
1
5
255

> <PUBCHEM_BONDANNOTATIONS>
16  1  5
42  10  6
46  11  6
51  11  5
57  13  5
59  14  6
15  26  5
18  63  6
17  2  5
22  31  5
19  3  5
20  4  5
45  49  5
28  5  6
50  52  8
50  53  8
52  55  8
53  56  8
55  60  8
56  60  8
58  61  5
34  6  5
38  6  5

$$$$
