5469231
  -OEChem-09022012562D

165172  0     1  0  0  0  0  0999 V2000
   22.1241   -2.1484    0.0000 O   0  0  0  0  0  0  0  0  0  0  0  0
   21.5601   -2.4770    0.0000 O   0  0  0  0  0  0  0  0  0  0  0  0
   20.9028    1.2866    0.0000 O   0  0  0  0  0  0  0  0  0  0  0  0
   22.4086    1.0487    0.0000 O   0  0  0  0  0  0  0  0  0  0  0  0
   16.3933   -3.2832    0.0000 O   0  0  0  0  0  0  0  0  0  0  0  0
   23.4208    1.6821    0.0000 O   0  0  0  0  0  0  0  0  0  0  0  0
   19.1708    1.2799    0.0000 O   0  0  0  0  0  0  0  0  0  0  0  0
   14.6613   -3.2832    0.0000 O   0  0  0  0  0  0  0  0  0  0  0  0
   14.6613   -0.2832    0.0000 O   0  0  0  0  0  0  0  0  0  0  0  0
   12.9292   -1.2832    0.0000 O   0  0  0  0  0  0  0  0  0  0  0  0
   11.1972   -1.2832    0.0000 O   0  0  0  0  0  0  0  0  0  0  0  0
   11.1972   -4.2832    0.0000 O   0  0  0  0  0  0  0  0  0  0  0  0
    9.4651   -3.2832    0.0000 O   0  0  0  0  0  0  0  0  0  0  0  0
    8.5991   -1.7832    0.0000 O   0  0  0  0  0  0  0  0  0  0  0  0
    6.0010   -1.2832    0.0000 O   0  0  0  0  0  0  0  0  0  0  0  0
    6.0010   -3.2832    0.0000 O   0  0  0  0  0  0  0  0  0  0  0  0
    5.1350   -2.7832    0.0000 O   0  0  0  0  0  0  0  0  0  0  0  0
    2.5369   -1.2832    0.0000 O   0  0  0  0  0  0  0  0  0  0  0  0
    2.5369   -3.2832    0.0000 O   0  0  0  0  0  0  0  0  0  0  0  0
   21.7785   -1.2101    0.0000 C   0  0  2  0  0  0  0  0  0  0  0  0
   21.7746   -0.2101    0.0000 C   0  0  2  0  0  0  0  0  0  0  0  0
   20.9144   -1.7134    0.0000 C   0  0  2  0  0  0  0  0  0  0  0  0
   20.0464   -1.2168    0.0000 C   0  0  1  0  0  0  0  0  0  0  0  0
   20.9067    0.2866    0.0000 C   0  0  1  0  0  0  0  0  0  0  0  0
   22.7197    0.0983    0.0000 C   0  0  2  0  0  0  0  0  0  0  0  0
   19.1384   -1.7271    0.0000 C   0  0  2  0  0  0  0  0  0  0  0  0
   20.0426   -0.2168    0.0000 C   0  0  0  0  0  0  0  0  0  0  0  0
   22.7259   -1.5112    0.0000 C   0  0  0  0  0  0  0  0  0  0  0  0
   23.3064   -0.7042    0.0000 C   0  0  0  0  0  0  0  0  0  0  0  0
   20.9345   -2.7549    0.0000 C   0  0  0  0  0  0  0  0  0  0  0  0
   21.7708    0.7899    0.0000 C   0  0  0  0  0  0  0  0  0  0  0  0
   19.1344   -2.7687    0.0000 C   0  0  0  0  0  0  0  0  0  0  0  0
   18.2094   -1.1666    0.0000 C   0  0  0  0  0  0  0  0  0  0  0  0
   20.0385   -3.2861    0.0000 C   0  0  0  0  0  0  0  0  0  0  0  0
   19.1423   -0.7271    0.0000 C   0  0  0  0  0  0  0  0  0  0  0  0
   23.5274    0.6878    0.0000 C   0  0  0  0  0  0  0  0  0  0  0  0
   18.2011   -3.3221    0.0000 C   0  0  0  0  0  0  0  0  0  0  0  0
   17.2635   -1.6982    0.0000 C   0  0  0  0  0  0  0  0  0  0  0  0
   17.2594   -2.7832    0.0000 C   0  0  2  0  0  0  0  0  0  0  0  0
   24.4418    0.2830    0.0000 C   0  0  0  0  0  0  0  0  0  0  0  0
   20.0349    1.7832    0.0000 C   0  0  0  0  0  0  0  0  0  0  0  0
   15.5273   -2.7832    0.0000 C   0  0  3  0  0  0  0  0  0  0  0  0
   20.0310    2.7832    0.0000 C   0  0  0  0  0  0  0  0  0  0  0  0
   15.5273   -1.7832    0.0000 C   0  0  0  0  0  0  0  0  0  0  0  0
   19.1631    3.2799    0.0000 C   0  0  0  0  0  0  0  0  0  0  0  0
   14.6613   -1.2832    0.0000 C   0  0  3  0  0  0  0  0  0  0  0  0
   13.7953   -2.7832    0.0000 C   0  0  3  0  0  0  0  0  0  0  0  0
   13.7953   -1.7832    0.0000 C   0  0  3  0  0  0  0  0  0  0  0  0
   19.1592    4.2799    0.0000 C   0  0  0  0  0  0  0  0  0  0  0  0
   18.2990    2.7765    0.0000 C   0  0  0  0  0  0  0  0  0  0  0  0
   12.9292   -3.2832    0.0000 C   0  0  0  0  0  0  0  0  0  0  0  0
   18.2913    4.7765    0.0000 C   0  0  0  0  0  0  0  0  0  0  0  0
   20.0233    4.7832    0.0000 C   0  0  0  0  0  0  0  0  0  0  0  0
   12.0632   -1.7832    0.0000 C   0  0  3  0  0  0  0  0  0  0  0  0
   15.5273    0.2168    0.0000 C   0  0  0  0  0  0  0  0  0  0  0  0
   12.0632   -2.7832    0.0000 C   0  0  0  0  0  0  0  0  0  0  0  0
   11.1972   -3.2832    0.0000 C   0  0  3  0  0  0  0  0  0  0  0  0
   10.3312   -1.7832    0.0000 C   0  0  3  0  0  0  0  0  0  0  0  0
   10.3312   -2.7832    0.0000 C   0  0  3  0  0  0  0  0  0  0  0  0
    9.4651   -1.2832    0.0000 C   0  0  0  0  0  0  0  0  0  0  0  0
    8.5991   -2.7832    0.0000 C   0  0  3  0  0  0  0  0  0  0  0  0
   12.0632   -4.7832    0.0000 C   0  0  0  0  0  0  0  0  0  0  0  0
    7.7331   -3.2832    0.0000 C   0  0  0  0  0  0  0  0  0  0  0  0
    6.8671   -2.7832    0.0000 C   0  0  3  0  0  0  0  0  0  0  0  0
    6.8671   -1.7832    0.0000 C   0  0  3  0  0  0  0  0  0  0  0  0
    7.7331   -1.2832    0.0000 C   0  0  3  0  0  0  0  0  0  0  0  0
    7.7331   -0.2832    0.0000 C   0  0  0  0  0  0  0  0  0  0  0  0
    5.1350   -1.7832    0.0000 C   0  0  3  0  0  0  0  0  0  0  0  0
    4.2690   -1.2832    0.0000 C   0  0  0  0  0  0  0  0  0  0  0  0
    3.4030   -1.7832    0.0000 C   0  0  3  0  0  0  0  0  0  0  0  0
    3.4030   -2.7832    0.0000 C   0  0  3  0  0  0  0  0  0  0  0  0
    4.2690   -3.2832    0.0000 C   0  0  3  0  0  0  0  0  0  0  0  0
    6.0010   -4.2832    0.0000 C   0  0  0  0  0  0  0  0  0  0  0  0
    4.2690   -4.2832    0.0000 C   0  0  0  0  0  0  0  0  0  0  0  0
    2.5369   -0.2832    0.0000 C   0  0  0  0  0  0  0  0  0  0  0  0
   20.7809   -0.7889    0.0000 H   0  0  0  0  0  0  0  0  0  0  0  0
   20.3685    0.5945    0.0000 H   0  0  0  0  0  0  0  0  0  0  0  0
   19.8283    0.3650    0.0000 H   0  0  0  0  0  0  0  0  0  0  0  0
   19.4324   -0.3268    0.0000 H   0  0  0  0  0  0  0  0  0  0  0  0
   22.4770   -2.0790    0.0000 H   0  0  0  0  0  0  0  0  0  0  0  0
   23.2644   -1.8183    0.0000 H   0  0  0  0  0  0  0  0  0  0  0  0
   23.7688   -1.1171    0.0000 H   0  0  0  0  0  0  0  0  0  0  0  0
   23.7656   -0.2877    0.0000 H   0  0  0  0  0  0  0  0  0  0  0  0
   21.1547   -3.3344    0.0000 H   0  0  0  0  0  0  0  0  0  0  0  0
   21.5432   -2.6370    0.0000 H   0  0  0  0  0  0  0  0  0  0  0  0
   22.3908    0.7923    0.0000 H   0  0  0  0  0  0  0  0  0  0  0  0
   21.7684    1.4099    0.0000 H   0  0  0  0  0  0  0  0  0  0  0  0
   21.1508    0.7875    0.0000 H   0  0  0  0  0  0  0  0  0  0  0  0
   18.6158   -0.6984    0.0000 H   0  0  0  0  0  0  0  0  0  0  0  0
   17.8176   -0.6861    0.0000 H   0  0  0  0  0  0  0  0  0  0  0  0
   20.0432   -3.9060    0.0000 H   0  0  0  0  0  0  0  0  0  0  0  0
   22.7351   -2.2538    0.0000 H   0  0  0  0  0  0  0  0  0  0  0  0
   19.7622   -0.7295    0.0000 H   0  0  0  0  0  0  0  0  0  0  0  0
   19.1446   -0.1071    0.0000 H   0  0  0  0  0  0  0  0  0  0  0  0
   18.5223   -0.7247    0.0000 H   0  0  0  0  0  0  0  0  0  0  0  0
   21.6702   -3.0871    0.0000 H   0  0  0  0  0  0  0  0  0  0  0  0
   17.8056   -3.7996    0.0000 H   0  0  0  0  0  0  0  0  0  0  0  0
   18.6039   -3.7934    0.0000 H   0  0  0  0  0  0  0  0  0  0  0  0
   17.0567   -1.1137    0.0000 H   0  0  0  0  0  0  0  0  0  0  0  0
   16.6523   -1.8019    0.0000 H   0  0  0  0  0  0  0  0  0  0  0  0
   16.7230   -2.4722    0.0000 H   0  0  0  0  0  0  0  0  0  0  0  0
   22.8225    1.5103    0.0000 H   0  0  0  0  0  0  0  0  0  0  0  0
   24.1909   -0.2839    0.0000 H   0  0  0  0  0  0  0  0  0  0  0  0
   25.0088    0.0320    0.0000 H   0  0  0  0  0  0  0  0  0  0  0  0
   24.6928    0.8499    0.0000 H   0  0  0  0  0  0  0  0  0  0  0  0
   15.5273   -3.4032    0.0000 H   0  0  0  0  0  0  0  0  0  0  0  0
   20.5668    3.0953    0.0000 H   0  0  0  0  0  0  0  0  0  0  0  0
   16.1379   -1.8908    0.0000 H   0  0  0  0  0  0  0  0  0  0  0  0
   15.7394   -1.2006    0.0000 H   0  0  0  0  0  0  0  0  0  0  0  0
   15.1982   -0.9732    0.0000 H   0  0  0  0  0  0  0  0  0  0  0  0
   13.7953   -3.4032    0.0000 H   0  0  0  0  0  0  0  0  0  0  0  0
   13.7953   -1.1632    0.0000 H   0  0  0  0  0  0  0  0  0  0  0  0
   19.6973    3.9719    0.0000 H   0  0  0  0  0  0  0  0  0  0  0  0
   17.9869    3.3123    0.0000 H   0  0  0  0  0  0  0  0  0  0  0  0
   17.7632    2.4645    0.0000 H   0  0  0  0  0  0  0  0  0  0  0  0
   18.6110    2.2408    0.0000 H   0  0  0  0  0  0  0  0  0  0  0  0
   12.6192   -2.7463    0.0000 H   0  0  0  0  0  0  0  0  0  0  0  0
   12.3923   -3.5932    0.0000 H   0  0  0  0  0  0  0  0  0  0  0  0
   13.2392   -3.8201    0.0000 H   0  0  0  0  0  0  0  0  0  0  0  0
   18.5992    5.3146    0.0000 H   0  0  0  0  0  0  0  0  0  0  0  0
   17.7531    5.0844    0.0000 H   0  0  0  0  0  0  0  0  0  0  0  0
   17.9833    4.2384    0.0000 H   0  0  0  0  0  0  0  0  0  0  0  0
   20.3354    4.2474    0.0000 H   0  0  0  0  0  0  0  0  0  0  0  0
   20.5590    5.0953    0.0000 H   0  0  0  0  0  0  0  0  0  0  0  0
   19.7112    5.3189    0.0000 H   0  0  0  0  0  0  0  0  0  0  0  0
   12.6002   -2.0932    0.0000 H   0  0  0  0  0  0  0  0  0  0  0  0
   15.8373   -0.3201    0.0000 H   0  0  0  0  0  0  0  0  0  0  0  0
   16.0643    0.5268    0.0000 H   0  0  0  0  0  0  0  0  0  0  0  0
   15.2173    0.7537    0.0000 H   0  0  0  0  0  0  0  0  0  0  0  0
   12.2753   -3.3658    0.0000 H   0  0  0  0  0  0  0  0  0  0  0  0
   12.6738   -2.6755    0.0000 H   0  0  0  0  0  0  0  0  0  0  0  0
   11.7341   -3.5932    0.0000 H   0  0  0  0  0  0  0  0  0  0  0  0
   10.3312   -1.1632    0.0000 H   0  0  0  0  0  0  0  0  0  0  0  0
    9.7942   -2.4732    0.0000 H   0  0  0  0  0  0  0  0  0  0  0  0
    9.7751   -0.7463    0.0000 H   0  0  0  0  0  0  0  0  0  0  0  0
    8.9282   -0.9732    0.0000 H   0  0  0  0  0  0  0  0  0  0  0  0
    9.1551   -1.8201    0.0000 H   0  0  0  0  0  0  0  0  0  0  0  0
    8.5991   -3.4032    0.0000 H   0  0  0  0  0  0  0  0  0  0  0  0
   11.7532   -5.3201    0.0000 H   0  0  0  0  0  0  0  0  0  0  0  0
   12.6002   -5.0932    0.0000 H   0  0  0  0  0  0  0  0  0  0  0  0
   12.3732   -4.2463    0.0000 H   0  0  0  0  0  0  0  0  0  0  0  0
    7.3346   -3.7581    0.0000 H   0  0  0  0  0  0  0  0  0  0  0  0
    8.1316   -3.7581    0.0000 H   0  0  0  0  0  0  0  0  0  0  0  0
    6.3301   -2.4732    0.0000 H   0  0  0  0  0  0  0  0  0  0  0  0
    6.8671   -1.1632    0.0000 H   0  0  0  0  0  0  0  0  0  0  0  0
    8.2700   -0.9732    0.0000 H   0  0  0  0  0  0  0  0  0  0  0  0
    8.3531   -0.2832    0.0000 H   0  0  0  0  0  0  0  0  0  0  0  0
    7.7331    0.3368    0.0000 H   0  0  0  0  0  0  0  0  0  0  0  0
    7.1131   -0.2832    0.0000 H   0  0  0  0  0  0  0  0  0  0  0  0
    5.1350   -1.1632    0.0000 H   0  0  0  0  0  0  0  0  0  0  0  0
    4.6675   -0.8082    0.0000 H   0  0  0  0  0  0  0  0  0  0  0  0
    3.8705   -0.8082    0.0000 H   0  0  0  0  0  0  0  0  0  0  0  0
    2.8660   -2.0932    0.0000 H   0  0  0  0  0  0  0  0  0  0  0  0
    3.4030   -3.4032    0.0000 H   0  0  0  0  0  0  0  0  0  0  0  0
    4.8059   -3.5932    0.0000 H   0  0  0  0  0  0  0  0  0  0  0  0
    5.3810   -4.2832    0.0000 H   0  0  0  0  0  0  0  0  0  0  0  0
    6.0010   -4.9032    0.0000 H   0  0  0  0  0  0  0  0  0  0  0  0
    6.6210   -4.2832    0.0000 H   0  0  0  0  0  0  0  0  0  0  0  0
    3.6490   -4.2832    0.0000 H   0  0  0  0  0  0  0  0  0  0  0  0
    4.2690   -4.9032    0.0000 H   0  0  0  0  0  0  0  0  0  0  0  0
    4.8890   -4.2832    0.0000 H   0  0  0  0  0  0  0  0  0  0  0  0
    2.0000   -2.9732    0.0000 H   0  0  0  0  0  0  0  0  0  0  0  0
    3.1569   -0.2832    0.0000 H   0  0  0  0  0  0  0  0  0  0  0  0
    2.5369    0.3368    0.0000 H   0  0  0  0  0  0  0  0  0  0  0  0
    1.9169   -0.2832    0.0000 H   0  0  0  0  0  0  0  0  0  0  0  0
 20  1  1  1  0  0  0
  1 92  1  0  0  0  0
 22  2  1  1  0  0  0
  2 96  1  0  0  0  0
 24  3  1  1  0  0  0
  3 41  1  0  0  0  0
 25  4  1  1  0  0  0
  4102  1  0  0  0  0
 39  5  1  1  0  0  0
  5 42  1  0  0  0  0
  6 36  2  0  0  0  0
  7 41  2  0  0  0  0
  8 42  1  0  0  0  0
  8 47  1  0  0  0  0
  9 46  1  0  0  0  0
  9 55  1  0  0  0  0
 10 48  1  0  0  0  0
 10 54  1  0  0  0  0
 11 54  1  0  0  0  0
 11 58  1  0  0  0  0
 12 57  1  0  0  0  0
 12 62  1  0  0  0  0
 13 59  1  0  0  0  0
 13 61  1  0  0  0  0
 14 61  1  0  0  0  0
 14 66  1  0  0  0  0
 15 65  1  0  0  0  0
 15 68  1  0  0  0  0
 16 64  1  0  0  0  0
 16 73  1  0  0  0  0
 17 68  1  0  0  0  0
 17 72  1  0  0  0  0
 18 70  1  0  0  0  0
 18 75  1  0  0  0  0
 19 71  1  0  0  0  0
 19162  1  0  0  0  0
 20 21  1  0  0  0  0
 20 22  1  0  0  0  0
 20 28  1  0  0  0  0
 21 24  1  0  0  0  0
 21 25  1  0  0  0  0
 21 31  1  1  0  0  0
 22 23  1  0  0  0  0
 22 30  1  0  0  0  0
 23 26  1  0  0  0  0
 23 27  1  0  0  0  0
 23 76  1  6  0  0  0
 24 27  1  0  0  0  0
 24 77  1  0  0  0  0
 25 29  1  0  0  0  0
 25 36  1  0  0  0  0
 26 32  1  0  0  0  0
 26 33  1  0  0  0  0
 26 35  1  1  0  0  0
 27 78  1  0  0  0  0
 27 79  1  0  0  0  0
 28 29  1  0  0  0  0
 28 80  1  0  0  0  0
 28 81  1  0  0  0  0
 29 82  1  0  0  0  0
 29 83  1  0  0  0  0
 30 34  1  0  0  0  0
 30 84  1  0  0  0  0
 30 85  1  0  0  0  0
 31 86  1  0  0  0  0
 31 87  1  0  0  0  0
 31 88  1  0  0  0  0
 32 34  2  0  0  0  0
 32 37  1  0  0  0  0
 33 38  1  0  0  0  0
 33 89  1  0  0  0  0
 33 90  1  0  0  0  0
 34 91  1  0  0  0  0
 35 93  1  0  0  0  0
 35 94  1  0  0  0  0
 35 95  1  0  0  0  0
 36 40  1  0  0  0  0
 37 39  1  0  0  0  0
 37 97  1  0  0  0  0
 37 98  1  0  0  0  0
 38 39  1  0  0  0  0
 38 99  1  0  0  0  0
 38100  1  0  0  0  0
 39101  1  0  0  0  0
 40103  1  0  0  0  0
 40104  1  0  0  0  0
 40105  1  0  0  0  0
 41 43  1  0  0  0  0
 42 44  1  0  0  0  0
 42106  1  0  0  0  0
 43 45  2  0  0  0  0
 43107  1  0  0  0  0
 44 46  1  0  0  0  0
 44108  1  0  0  0  0
 44109  1  0  0  0  0
 45 49  1  0  0  0  0
 45 50  1  0  0  0  0
 46 48  1  0  0  0  0
 46110  1  0  0  0  0
 47 48  1  0  0  0  0
 47 51  1  0  0  0  0
 47111  1  0  0  0  0
 48112  1  0  0  0  0
 49 52  1  0  0  0  0
 49 53  1  0  0  0  0
 49113  1  0  0  0  0
 50114  1  0  0  0  0
 50115  1  0  0  0  0
 50116  1  0  0  0  0
 51117  1  0  0  0  0
 51118  1  0  0  0  0
 51119  1  0  0  0  0
 52120  1  0  0  0  0
 52121  1  0  0  0  0
 52122  1  0  0  0  0
 53123  1  0  0  0  0
 53124  1  0  0  0  0
 53125  1  0  0  0  0
 54 56  1  0  0  0  0
 54126  1  0  0  0  0
 55127  1  0  0  0  0
 55128  1  0  0  0  0
 55129  1  0  0  0  0
 56 57  1  0  0  0  0
 56130  1  0  0  0  0
 56131  1  0  0  0  0
 57 59  1  0  0  0  0
 57132  1  0  0  0  0
 58 59  1  0  0  0  0
 58 60  1  0  0  0  0
 58133  1  0  0  0  0
 59134  1  0  0  0  0
 60135  1  0  0  0  0
 60136  1  0  0  0  0
 60137  1  0  0  0  0
 61 63  1  0  0  0  0
 61138  1  0  0  0  0
 62139  1  0  0  0  0
 62140  1  0  0  0  0
 62141  1  0  0  0  0
 63 64  1  0  0  0  0
 63142  1  0  0  0  0
 63143  1  0  0  0  0
 64 65  1  0  0  0  0
 64144  1  0  0  0  0
 65 66  1  0  0  0  0
 65145  1  0  0  0  0
 66 67  1  0  0  0  0
 66146  1  0  0  0  0
 67147  1  0  0  0  0
 67148  1  0  0  0  0
 67149  1  0  0  0  0
 68 69  1  0  0  0  0
 68150  1  0  0  0  0
 69 70  1  0  0  0  0
 69151  1  0  0  0  0
 69152  1  0  0  0  0
 70 71  1  0  0  0  0
 70153  1  0  0  0  0
 71 72  1  0  0  0  0
 71154  1  0  0  0  0
 72 74  1  0  0  0  0
 72155  1  0  0  0  0
 73156  1  0  0  0  0
 73157  1  0  0  0  0
 73158  1  0  0  0  0
 74159  1  0  0  0  0
 74160  1  0  0  0  0
 74161  1  0  0  0  0
 75163  1  0  0  0  0
 75164  1  0  0  0  0
 75165  1  0  0  0  0
M  END
> <PUBCHEM_COMPOUND_CID>
5469231

> <PUBCHEM_COMPOUND_CANONICALIZED>
1

> <PUBCHEM_CACTVS_COMPLEXITY>
2070

> <PUBCHEM_CACTVS_HBOND_ACCEPTOR>
19

> <PUBCHEM_CACTVS_HBOND_DONOR>
4

> <PUBCHEM_CACTVS_ROTATABLE_BOND>
17

> <PUBCHEM_CACTVS_SUBSKEYS>
AAADcfB8PgAAAAAAAAAAAAAAAAAAAYAAAAA0aJEiAAAAAGCAAAAAGgAACAAAD1SwgAMCCAAABgCIAqDSCAIAAAAgAAAACAFAAEgRFBIAIQAiUAAFwAAPIQPK7PzPgAAAAAAAAADCAAYQADCAAYQADAAAAA==

> <PUBCHEM_IUPAC_OPENEYE_NAME>
[(3S,8S,9R,10R,12R,13S,14R,17S)-17-acetyl-8,14,17-trihydroxy-3-[5-[5-[5-(5-hydroxy-4-methoxy-6-methyl-tetrahydropyran-2-yl)oxy-4-methoxy-6-methyl-tetrahydropyran-2-yl]oxy-4-methoxy-6-methyl-tetrahydropyran-2-yl]oxy-4-methoxy-6-methyl-tetrahydropyran-2-yl]oxy-10,13-dimethyl-1,2,3,4,7,9,11,12,15,16-decahydrocyclopenta[a]phenanthren-12-yl] (E)-3,4-dimethylpent-2-enoate

> <PUBCHEM_IUPAC_CAS_NAME>
(E)-3,4-dimethyl-2-pentenoic acid [(3S,8S,9R,10R,12R,13S,14R,17S)-17-acetyl-8,14,17-trihydroxy-3-[[5-[[5-[[5-[(5-hydroxy-4-methoxy-6-methyl-2-oxanyl)oxy]-4-methoxy-6-methyl-2-oxanyl]oxy]-4-methoxy-6-methyl-2-oxanyl]oxy]-4-methoxy-6-methyl-2-oxanyl]oxy]-10,13-dimethyl-1,2,3,4,7,9,11,12,15,16-decahydrocyclopenta[a]phenanthren-12-yl] ester

> <PUBCHEM_IUPAC_NAME_MARKUP>
[(3<I>S</I>,8<I>S</I>,9<I>R</I>,10<I>R</I>,12<I>R</I>,13<I>S</I>,14<I>R</I>,17<I>S</I>)-17-acetyl-8,14,17-trihydroxy-3-[5-[5-[5-(5-hydroxy-4-methoxy-6-methyloxan-2-yl)oxy-4-methoxy-6-methyloxan-2-yl]oxy-4-methoxy-6-methyloxan-2-yl]oxy-4-methoxy-6-methyloxan-2-yl]oxy-10,13-dimethyl-1,2,3,4,7,9,11,12,15,16-decahydrocyclopenta[a]phenanthren-12-yl] (<I>E</I>)-3,4-dimethylpent-2-enoate

> <PUBCHEM_IUPAC_NAME>
[(3S,8S,9R,10R,12R,13S,14R,17S)-17-acetyl-8,14,17-trihydroxy-3-[5-[5-[5-(5-hydroxy-4-methoxy-6-methyloxan-2-yl)oxy-4-methoxy-6-methyloxan-2-yl]oxy-4-methoxy-6-methyloxan-2-yl]oxy-4-methoxy-6-methyloxan-2-yl]oxy-10,13-dimethyl-1,2,3,4,7,9,11,12,15,16-decahydrocyclopenta[a]phenanthren-12-yl] (E)-3,4-dimethylpent-2-enoate

> <PUBCHEM_IUPAC_SYSTEMATIC_NAME>
[(3S,8S,9R,10R,12R,13S,14R,17S)-17-ethanoyl-3-[4-methoxy-5-[4-methoxy-5-[4-methoxy-5-(4-methoxy-6-methyl-5-oxidanyl-oxan-2-yl)oxy-6-methyl-oxan-2-yl]oxy-6-methyl-oxan-2-yl]oxy-6-methyl-oxan-2-yl]oxy-10,13-dimethyl-8,14,17-tris(oxidanyl)-1,2,3,4,7,9,11,12,15,16-decahydrocyclopenta[a]phenanthren-12-yl] (E)-3,4-dimethylpent-2-enoate

> <PUBCHEM_IUPAC_TRADITIONAL_NAME>
(E)-3,4-dimethylpent-2-enoic acid [(3S,8S,9R,10R,12R,13S,14R,17S)-17-acetyl-8,14,17-trihydroxy-3-[5-[5-[5-(5-hydroxy-4-methoxy-6-methyl-tetrahydropyran-2-yl)oxy-4-methoxy-6-methyl-tetrahydropyran-2-yl]oxy-4-methoxy-6-methyl-tetrahydropyran-2-yl]oxy-4-methoxy-6-methyl-tetrahydropyran-2-yl]oxy-10,13-dimethyl-1,2,3,4,7,9,11,12,15,16-decahydrocyclopenta[a]phenanthren-12-yl] ester

> <PUBCHEM_IUPAC_INCHI>
InChI=1S/C56H90O19/c1-28(2)29(3)21-43(58)72-42-27-41-52(9)17-16-36(22-35(52)15-18-55(41,61)56(62)20-19-54(60,34(8)57)53(42,56)10)71-44-24-38(64-12)49(31(5)68-44)74-46-26-40(66-14)51(33(7)70-46)75-47-25-39(65-13)50(32(6)69-47)73-45-23-37(63-11)48(59)30(4)67-45/h15,21,28,30-33,36-42,44-51,59-62H,16-20,22-27H2,1-14H3/b29-21+/t30?,31?,32?,33?,36-,37?,38?,39?,40?,41+,42+,44?,45?,46?,47?,48?,49?,50?,51?,52-,53+,54+,55-,56+/m0/s1

> <PUBCHEM_IUPAC_INCHIKEY>
YUDOHRCAEPBFBO-JBSPSKQRSA-N

> <PUBCHEM_XLOGP3_AA>
4.1

> <PUBCHEM_EXACT_MASS>
1066.607631

> <PUBCHEM_MOLECULAR_FORMULA>
C56H90O19

> <PUBCHEM_MOLECULAR_WEIGHT>
1067.3

> <PUBCHEM_OPENEYE_CAN_SMILES>
CC1C(C(CC(O1)OC2C(OC(CC2OC)OC3C(OC(CC3OC)OC4C(OC(CC4OC)OC5CCC6(C7CC(C8(C(CCC8(C7(CC=C6C5)O)O)(C(=O)C)O)C)OC(=O)C=C(C)C(C)C)C)C)C)C)OC)O

> <PUBCHEM_OPENEYE_ISO_SMILES>
CC1C(C(CC(O1)OC2C(OC(CC2OC)OC3C(OC(CC3OC)OC4C(OC(CC4OC)O[C@H]5CC[C@@]6([C@H]7C[C@H]([C@@]8([C@@](CC[C@@]8([C@@]7(CC=C6C5)O)O)(C(=O)C)O)C)OC(=O)/C=C(\C)/C(C)C)C)C)C)C)OC)O

> <PUBCHEM_CACTVS_TPSA>
235

> <PUBCHEM_MONOISOTOPIC_WEIGHT>
1066.607631

> <PUBCHEM_TOTAL_CHARGE>
0

> <PUBCHEM_HEAVY_ATOM_COUNT>
75

> <PUBCHEM_ATOM_DEF_STEREO_COUNT>
8

> <PUBCHEM_ATOM_UDEF_STEREO_COUNT>
16

> <PUBCHEM_BOND_DEF_STEREO_COUNT>
1

> <PUBCHEM_BOND_UDEF_STEREO_COUNT>
0

> <PUBCHEM_ISOTOPIC_ATOM_COUNT>
0

> <PUBCHEM_COMPONENT_COUNT>
1

> <PUBCHEM_CACTVS_TAUTO_COUNT>
-1

> <PUBCHEM_COORDINATE_TYPE>
1
5
255

> <PUBCHEM_BONDANNOTATIONS>
20  1  5
48  10  3
54  10  3
57  12  3
59  13  3
61  13  3
65  15  3
68  15  3
64  16  3
70  18  3
71  19  3
22  2  5
21  31  5
23  76  6
26  35  5
24  3  5
25  4  5
47  51  3
39  5  5
42  5  3
58  60  3
66  67  3
72  74  3
46  9  3

$$$$
