102165354
  -OEChem-09022014112D

168175  0     1  0  0  0  0  0999 V2000
   22.0694    1.4440    0.0000 O   0  0  0  0  0  0  0  0  0  0  0  0
   21.6671   -0.6965    0.0000 O   0  0  0  0  0  0  0  0  0  0  0  0
   16.3933   -3.7004    0.0000 O   0  0  0  0  0  0  0  0  0  0  0  0
   21.3073    3.4785    0.0000 O   0  0  0  0  0  0  0  0  0  0  0  0
   19.2160    0.0039    0.0000 O   0  0  0  0  0  0  0  0  0  0  0  0
   21.6633   -1.6965    0.0000 O   0  0  0  0  0  0  0  0  0  0  0  0
   14.6613   -3.7004    0.0000 O   0  0  0  0  0  0  0  0  0  0  0  0
   12.9292   -1.7004    0.0000 O   0  0  0  0  0  0  0  0  0  0  0  0
   22.5389    0.8001    0.0000 O   0  0  0  0  0  0  0  0  0  0  0  0
   14.6613   -0.7004    0.0000 O   0  0  0  0  0  0  0  0  0  0  0  0
   22.8923    4.1769    0.0000 O   0  0  0  0  0  0  0  0  0  0  0  0
   11.1972   -1.7004    0.0000 O   0  0  0  0  0  0  0  0  0  0  0  0
    9.4651   -3.7004    0.0000 O   0  0  0  0  0  0  0  0  0  0  0  0
   11.1972   -4.7004    0.0000 O   0  0  0  0  0  0  0  0  0  0  0  0
    8.5991   -2.2004    0.0000 O   0  0  0  0  0  0  0  0  0  0  0  0
    6.0010   -1.7004    0.0000 O   0  0  0  0  0  0  0  0  0  0  0  0
    6.0010   -3.7004    0.0000 O   0  0  0  0  0  0  0  0  0  0  0  0
    5.1350   -3.2004    0.0000 O   0  0  0  0  0  0  0  0  0  0  0  0
    2.5369   -1.7004    0.0000 O   0  0  0  0  0  0  0  0  0  0  0  0
    2.5369   -3.7004    0.0000 O   0  0  0  0  0  0  0  0  0  0  0  0
   20.8069    0.8068    0.0000 C   0  0  1  0  0  0  0  0  0  0  0  0
   19.0633   -2.1865    0.0000 C   0  0  1  0  0  0  0  0  0  0  0  0
   21.1196    1.7567    0.0000 C   0  0  2  0  0  0  0  0  0  0  0  0
   19.9312   -1.6898    0.0000 C   0  0  1  0  0  0  0  0  0  0  0  0
   20.8030   -0.1932    0.0000 C   0  0  1  0  0  0  0  0  0  0  0  0
   19.9351   -0.6898    0.0000 C   0  0  0  0  0  0  0  0  0  0  0  0
   20.3128    2.3476    0.0000 C   0  0  0  0  0  0  0  0  0  0  0  0
   18.1714   -1.6484    0.0000 C   0  0  0  0  0  0  0  0  0  0  0  0
   19.0594   -3.1865    0.0000 C   0  0  0  0  0  0  0  0  0  0  0  0
   19.8069    0.8107    0.0000 C   0  0  0  0  0  0  0  0  0  0  0  0
   19.5016    1.7629    0.0000 C   0  0  0  0  0  0  0  0  0  0  0  0
   21.7105    2.5634    0.0000 C   0  0  3  0  0  0  0  0  0  0  0  0
   17.2634   -2.1587    0.0000 C   0  0  0  0  0  0  0  0  0  0  0  0
   21.7568    0.4941    0.0000 C   0  0  0  0  0  0  0  0  0  0  0  0
   18.1634   -3.7177    0.0000 C   0  0  0  0  0  0  0  0  0  0  0  0
   17.2594   -3.2004    0.0000 C   0  0  1  0  0  0  0  0  0  0  0  0
   20.7953   -2.1932    0.0000 C   0  0  0  0  0  0  0  0  0  0  0  0
   19.0672   -1.1865    0.0000 C   0  0  0  0  0  0  0  0  0  0  0  0
   20.7915   -3.1932    0.0000 C   0  0  0  0  0  0  0  0  0  0  0  0
   19.9235   -3.6898    0.0000 C   0  0  0  0  0  0  0  0  0  0  0  0
   22.7046    2.4550    0.0000 C   0  0  0  0  0  0  0  0  0  0  0  0
   15.5273   -3.2004    0.0000 C   0  0  2  0  0  0  0  0  0  0  0  0
   22.5351   -0.1999    0.0000 C   0  0  0  0  0  0  0  0  0  0  0  0
   15.5273   -2.2004    0.0000 C   0  0  0  0  0  0  0  0  0  0  0  0
   14.6613   -1.7004    0.0000 C   0  0  1  0  0  0  0  0  0  0  0  0
   13.7953   -2.2004    0.0000 C   0  0  1  0  0  0  0  0  0  0  0  0
   21.8982    4.2853    0.0000 C   0  0  0  0  0  0  0  0  0  0  0  0
   13.7953   -3.2004    0.0000 C   0  0  1  0  0  0  0  0  0  0  0  0
   23.3992   -0.7032    0.0000 C   0  0  0  0  0  0  0  0  0  0  0  0
   21.4950    5.2004    0.0000 C   0  0  0  0  0  0  0  0  0  0  0  0
   12.9292   -3.7004    0.0000 C   0  0  0  0  0  0  0  0  0  0  0  0
   12.0632   -2.2004    0.0000 C   0  0  2  0  0  0  0  0  0  0  0  0
   12.0632   -3.2004    0.0000 C   0  0  0  0  0  0  0  0  0  0  0  0
   24.2671   -0.2065    0.0000 C   0  0  0  0  0  0  0  0  0  0  0  0
   11.1972   -3.7004    0.0000 C   0  0  1  0  0  0  0  0  0  0  0  0
   10.3312   -3.2004    0.0000 C   0  0  1  0  0  0  0  0  0  0  0  0
   10.3312   -2.2004    0.0000 C   0  0  2  0  0  0  0  0  0  0  0  0
   15.5273   -0.2004    0.0000 C   0  0  0  0  0  0  0  0  0  0  0  0
    8.5991   -3.2004    0.0000 C   0  0  2  0  0  0  0  0  0  0  0  0
   25.1312   -0.7099    0.0000 C   0  0  0  0  0  0  0  0  0  0  0  0
    9.4651   -1.7004    0.0000 C   0  0  0  0  0  0  0  0  0  0  0  0
    7.7331   -3.7004    0.0000 C   0  0  0  0  0  0  0  0  0  0  0  0
    6.8671   -2.2004    0.0000 C   0  0  1  0  0  0  0  0  0  0  0  0
    6.8671   -3.2004    0.0000 C   0  0  1  0  0  0  0  0  0  0  0  0
    7.7331   -1.7004    0.0000 C   0  0  1  0  0  0  0  0  0  0  0  0
    5.1350   -2.2004    0.0000 C   0  0  2  0  0  0  0  0  0  0  0  0
   25.1274   -1.7099    0.0000 C   0  0  0  0  0  0  0  0  0  0  0  0
   25.9992   -0.2132    0.0000 C   0  0  0  0  0  0  0  0  0  0  0  0
    7.7331   -0.7004    0.0000 C   0  0  0  0  0  0  0  0  0  0  0  0
    4.2690   -1.7004    0.0000 C   0  0  0  0  0  0  0  0  0  0  0  0
   12.0632   -5.2004    0.0000 C   0  0  0  0  0  0  0  0  0  0  0  0
    3.4030   -2.2004    0.0000 C   0  0  2  0  0  0  0  0  0  0  0  0
    3.4030   -3.2004    0.0000 C   0  0  2  0  0  0  0  0  0  0  0  0
    4.2690   -3.7004    0.0000 C   0  0  2  0  0  0  0  0  0  0  0  0
   25.9914   -2.2132    0.0000 C   0  0  0  0  0  0  0  0  0  0  0  0
   26.8633   -0.7166    0.0000 C   0  0  0  0  0  0  0  0  0  0  0  0
   26.8594   -1.7165    0.0000 C   0  0  0  0  0  0  0  0  0  0  0  0
    6.0010   -4.7004    0.0000 C   0  0  0  0  0  0  0  0  0  0  0  0
    4.2690   -4.7004    0.0000 C   0  0  0  0  0  0  0  0  0  0  0  0
    2.5369   -0.7004    0.0000 C   0  0  0  0  0  0  0  0  0  0  0  0
   20.4694   -1.3819    0.0000 H   0  0  0  0  0  0  0  0  0  0  0  0
   20.8007   -0.8132    0.0000 H   0  0  0  0  0  0  0  0  0  0  0  0
   19.7253   -0.1064    0.0000 H   0  0  0  0  0  0  0  0  0  0  0  0
   19.3241   -0.7952    0.0000 H   0  0  0  0  0  0  0  0  0  0  0  0
   20.7295    2.8067    0.0000 H   0  0  0  0  0  0  0  0  0  0  0  0
   19.8998    2.8099    0.0000 H   0  0  0  0  0  0  0  0  0  0  0  0
   18.5778   -1.1802    0.0000 H   0  0  0  0  0  0  0  0  0  0  0  0
   17.7796   -1.1679    0.0000 H   0  0  0  0  0  0  0  0  0  0  0  0
   19.1936    2.3010    0.0000 H   0  0  0  0  0  0  0  0  0  0  0  0
   18.9342    1.5129    0.0000 H   0  0  0  0  0  0  0  0  0  0  0  0
   22.0768    3.0636    0.0000 H   0  0  0  0  0  0  0  0  0  0  0  0
   17.0566   -1.5742    0.0000 H   0  0  0  0  0  0  0  0  0  0  0  0
   16.6521   -2.2625    0.0000 H   0  0  0  0  0  0  0  0  0  0  0  0
   21.5629   -0.0948    0.0000 H   0  0  0  0  0  0  0  0  0  0  0  0
   22.3457    0.3003    0.0000 H   0  0  0  0  0  0  0  0  0  0  0  0
   21.9506    1.0830    0.0000 H   0  0  0  0  0  0  0  0  0  0  0  0
   17.7680   -4.1952    0.0000 H   0  0  0  0  0  0  0  0  0  0  0  0
   18.5662   -4.1890    0.0000 H   0  0  0  0  0  0  0  0  0  0  0  0
   16.7230   -2.8893    0.0000 H   0  0  0  0  0  0  0  0  0  0  0  0
   19.6871   -1.1889    0.0000 H   0  0  0  0  0  0  0  0  0  0  0  0
   19.0695   -0.5665    0.0000 H   0  0  0  0  0  0  0  0  0  0  0  0
   18.4472   -1.1841    0.0000 H   0  0  0  0  0  0  0  0  0  0  0  0
   21.0013   -3.7766    0.0000 H   0  0  0  0  0  0  0  0  0  0  0  0
   21.4025   -3.0879    0.0000 H   0  0  0  0  0  0  0  0  0  0  0  0
   19.9211   -4.3098    0.0000 H   0  0  0  0  0  0  0  0  0  0  0  0
   22.5318    1.8571    0.0000 H   0  0  0  0  0  0  0  0  0  0  0  0
   22.6374    1.8387    0.0000 H   0  0  0  0  0  0  0  0  0  0  0  0
   23.3209    2.3879    0.0000 H   0  0  0  0  0  0  0  0  0  0  0  0
   22.7718    3.0714    0.0000 H   0  0  0  0  0  0  0  0  0  0  0  0
   15.5273   -3.8204    0.0000 H   0  0  0  0  0  0  0  0  0  0  0  0
   16.1379   -2.3080    0.0000 H   0  0  0  0  0  0  0  0  0  0  0  0
   15.7394   -1.6178    0.0000 H   0  0  0  0  0  0  0  0  0  0  0  0
   15.1982   -1.3904    0.0000 H   0  0  0  0  0  0  0  0  0  0  0  0
   13.7953   -1.5804    0.0000 H   0  0  0  0  0  0  0  0  0  0  0  0
   13.7953   -3.8204    0.0000 H   0  0  0  0  0  0  0  0  0  0  0  0
   23.3968   -1.3232    0.0000 H   0  0  0  0  0  0  0  0  0  0  0  0
   22.0623    5.4504    0.0000 H   0  0  0  0  0  0  0  0  0  0  0  0
   21.2450    5.7677    0.0000 H   0  0  0  0  0  0  0  0  0  0  0  0
   20.9276    4.9504    0.0000 H   0  0  0  0  0  0  0  0  0  0  0  0
   12.6192   -3.1634    0.0000 H   0  0  0  0  0  0  0  0  0  0  0  0
   12.3923   -4.0104    0.0000 H   0  0  0  0  0  0  0  0  0  0  0  0
   13.2392   -4.2373    0.0000 H   0  0  0  0  0  0  0  0  0  0  0  0
   12.6002   -2.5104    0.0000 H   0  0  0  0  0  0  0  0  0  0  0  0
   12.2753   -3.7830    0.0000 H   0  0  0  0  0  0  0  0  0  0  0  0
   12.6738   -3.0927    0.0000 H   0  0  0  0  0  0  0  0  0  0  0  0
   24.2695    0.4135    0.0000 H   0  0  0  0  0  0  0  0  0  0  0  0
   11.7341   -4.0104    0.0000 H   0  0  0  0  0  0  0  0  0  0  0  0
    9.7942   -2.8904    0.0000 H   0  0  0  0  0  0  0  0  0  0  0  0
   10.3312   -1.5804    0.0000 H   0  0  0  0  0  0  0  0  0  0  0  0
   15.8373   -0.7373    0.0000 H   0  0  0  0  0  0  0  0  0  0  0  0
   16.0643    0.1096    0.0000 H   0  0  0  0  0  0  0  0  0  0  0  0
   15.2173    0.3366    0.0000 H   0  0  0  0  0  0  0  0  0  0  0  0
    8.5991   -3.8204    0.0000 H   0  0  0  0  0  0  0  0  0  0  0  0
    7.3346   -4.1753    0.0000 H   0  0  0  0  0  0  0  0  0  0  0  0
    8.1316   -4.1753    0.0000 H   0  0  0  0  0  0  0  0  0  0  0  0
    6.3301   -2.5104    0.0000 H   0  0  0  0  0  0  0  0  0  0  0  0
    9.7751   -1.1634    0.0000 H   0  0  0  0  0  0  0  0  0  0  0  0
    8.9282   -1.3904    0.0000 H   0  0  0  0  0  0  0  0  0  0  0  0
    9.1551   -2.2373    0.0000 H   0  0  0  0  0  0  0  0  0  0  0  0
    7.4040   -3.5104    0.0000 H   0  0  0  0  0  0  0  0  0  0  0  0
    8.2700   -1.3904    0.0000 H   0  0  0  0  0  0  0  0  0  0  0  0
    5.1350   -1.5804    0.0000 H   0  0  0  0  0  0  0  0  0  0  0  0
   24.5892   -2.0178    0.0000 H   0  0  0  0  0  0  0  0  0  0  0  0
   26.0015    0.4068    0.0000 H   0  0  0  0  0  0  0  0  0  0  0  0
    8.3531   -0.7004    0.0000 H   0  0  0  0  0  0  0  0  0  0  0  0
    7.7331   -0.0804    0.0000 H   0  0  0  0  0  0  0  0  0  0  0  0
    7.1131   -0.7004    0.0000 H   0  0  0  0  0  0  0  0  0  0  0  0
    4.6675   -1.2254    0.0000 H   0  0  0  0  0  0  0  0  0  0  0  0
    3.8705   -1.2254    0.0000 H   0  0  0  0  0  0  0  0  0  0  0  0
   11.7532   -5.7373    0.0000 H   0  0  0  0  0  0  0  0  0  0  0  0
   12.6002   -5.5104    0.0000 H   0  0  0  0  0  0  0  0  0  0  0  0
   12.3732   -4.6634    0.0000 H   0  0  0  0  0  0  0  0  0  0  0  0
    3.4030   -1.5804    0.0000 H   0  0  0  0  0  0  0  0  0  0  0  0
    3.4030   -3.8204    0.0000 H   0  0  0  0  0  0  0  0  0  0  0  0
    4.8059   -4.0104    0.0000 H   0  0  0  0  0  0  0  0  0  0  0  0
   25.9891   -2.8332    0.0000 H   0  0  0  0  0  0  0  0  0  0  0  0
   27.4014   -0.4086    0.0000 H   0  0  0  0  0  0  0  0  0  0  0  0
    5.3810   -4.7004    0.0000 H   0  0  0  0  0  0  0  0  0  0  0  0
    6.0010   -5.3204    0.0000 H   0  0  0  0  0  0  0  0  0  0  0  0
    6.6210   -4.7004    0.0000 H   0  0  0  0  0  0  0  0  0  0  0  0
    3.6490   -4.7004    0.0000 H   0  0  0  0  0  0  0  0  0  0  0  0
    4.2690   -5.3204    0.0000 H   0  0  0  0  0  0  0  0  0  0  0  0
    4.8890   -4.7004    0.0000 H   0  0  0  0  0  0  0  0  0  0  0  0
   27.3951   -2.0286    0.0000 H   0  0  0  0  0  0  0  0  0  0  0  0
    2.0000   -3.3904    0.0000 H   0  0  0  0  0  0  0  0  0  0  0  0
    3.1569   -0.7004    0.0000 H   0  0  0  0  0  0  0  0  0  0  0  0
    2.5369   -0.0804    0.0000 H   0  0  0  0  0  0  0  0  0  0  0  0
    1.9169   -0.7004    0.0000 H   0  0  0  0  0  0  0  0  0  0  0  0
 23  1  1  6  0  0  0
  1106  1  0  0  0  0
 25  2  1  6  0  0  0
  2 43  1  0  0  0  0
 36  3  1  1  0  0  0
 42  3  1  6  0  0  0
  4 32  1  0  0  0  0
  4 47  1  0  0  0  0
  5 30  2  0  0  0  0
  6 37  2  0  0  0  0
  7 42  1  0  0  0  0
  7 48  1  0  0  0  0
 46  8  1  1  0  0  0
 52  8  1  1  0  0  0
  9 43  2  0  0  0  0
 45 10  1  1  0  0  0
 10 58  1  0  0  0  0
 11 47  2  0  0  0  0
 12 52  1  0  0  0  0
 12 57  1  0  0  0  0
 56 13  1  6  0  0  0
 59 13  1  1  0  0  0
 55 14  1  6  0  0  0
 14 71  1  0  0  0  0
 15 59  1  0  0  0  0
 15 65  1  0  0  0  0
 63 16  1  6  0  0  0
 66 16  1  6  0  0  0
 64 17  1  6  0  0  0
 17 78  1  0  0  0  0
 18 66  1  0  0  0  0
 18 74  1  0  0  0  0
 72 19  1  6  0  0  0
 19 80  1  0  0  0  0
 73 20  1  6  0  0  0
 20165  1  0  0  0  0
 21 23  1  0  0  0  0
 21 25  1  0  0  0  0
 21 30  1  0  0  0  0
 21 34  1  6  0  0  0
 22 24  1  0  0  0  0
 22 28  1  0  0  0  0
 22 29  1  0  0  0  0
 22 38  1  1  0  0  0
 23 27  1  0  0  0  0
 23 32  1  0  0  0  0
 24 26  1  1  0  0  0
 24 37  1  0  0  0  0
 24 81  1  0  0  0  0
 25 26  1  0  0  0  0
 25 82  1  0  0  0  0
 26 83  1  0  0  0  0
 26 84  1  0  0  0  0
 27 31  1  0  0  0  0
 27 85  1  0  0  0  0
 27 86  1  0  0  0  0
 28 33  1  0  0  0  0
 28 87  1  0  0  0  0
 28 88  1  0  0  0  0
 29 35  1  0  0  0  0
 29 40  2  0  0  0  0
 30 31  1  0  0  0  0
 31 89  1  0  0  0  0
 31 90  1  0  0  0  0
 32 41  1  0  0  0  0
 32 91  1  0  0  0  0
 33 36  1  0  0  0  0
 33 92  1  0  0  0  0
 33 93  1  0  0  0  0
 34 94  1  0  0  0  0
 34 95  1  0  0  0  0
 34 96  1  0  0  0  0
 35 36  1  0  0  0  0
 35 97  1  0  0  0  0
 35 98  1  0  0  0  0
 36 99  1  0  0  0  0
 37 39  1  0  0  0  0
 38100  1  0  0  0  0
 38101  1  0  0  0  0
 38102  1  0  0  0  0
 39 40  1  0  0  0  0
 39103  1  0  0  0  0
 39104  1  0  0  0  0
 40105  1  0  0  0  0
 41107  1  0  0  0  0
 41108  1  0  0  0  0
 41109  1  0  0  0  0
 42 44  1  0  0  0  0
 42110  1  0  0  0  0
 43 49  1  0  0  0  0
 44 45  1  0  0  0  0
 44111  1  0  0  0  0
 44112  1  0  0  0  0
 45 46  1  0  0  0  0
 45113  1  0  0  0  0
 46 48  1  0  0  0  0
 46114  1  0  0  0  0
 47 50  1  0  0  0  0
 48 51  1  6  0  0  0
 48115  1  0  0  0  0
 49 54  2  0  0  0  0
 49116  1  0  0  0  0
 50117  1  0  0  0  0
 50118  1  0  0  0  0
 50119  1  0  0  0  0
 51120  1  0  0  0  0
 51121  1  0  0  0  0
 51122  1  0  0  0  0
 52 53  1  0  0  0  0
 52123  1  0  0  0  0
 53 55  1  0  0  0  0
 53124  1  0  0  0  0
 53125  1  0  0  0  0
 54 60  1  0  0  0  0
 54126  1  0  0  0  0
 55 56  1  0  0  0  0
 55127  1  0  0  0  0
 56 57  1  0  0  0  0
 56128  1  0  0  0  0
 57 61  1  6  0  0  0
 57129  1  0  0  0  0
 58130  1  0  0  0  0
 58131  1  0  0  0  0
 58132  1  0  0  0  0
 59 62  1  0  0  0  0
 59133  1  0  0  0  0
 60 67  2  0  0  0  0
 60 68  1  0  0  0  0
 61137  1  0  0  0  0
 61138  1  0  0  0  0
 61139  1  0  0  0  0
 62 64  1  0  0  0  0
 62134  1  0  0  0  0
 62135  1  0  0  0  0
 63 64  1  0  0  0  0
 63 65  1  0  0  0  0
 63136  1  0  0  0  0
 64140  1  0  0  0  0
 65 69  1  1  0  0  0
 65141  1  0  0  0  0
 66 70  1  0  0  0  0
 66142  1  0  0  0  0
 67 75  1  0  0  0  0
 67143  1  0  0  0  0
 68 76  2  0  0  0  0
 68144  1  0  0  0  0
 69145  1  0  0  0  0
 69146  1  0  0  0  0
 69147  1  0  0  0  0
 70 72  1  0  0  0  0
 70148  1  0  0  0  0
 70149  1  0  0  0  0
 71150  1  0  0  0  0
 71151  1  0  0  0  0
 71152  1  0  0  0  0
 72 73  1  0  0  0  0
 72153  1  0  0  0  0
 73 74  1  0  0  0  0
 73154  1  0  0  0  0
 74 79  1  1  0  0  0
 74155  1  0  0  0  0
 75 77  2  0  0  0  0
 75156  1  0  0  0  0
 76 77  1  0  0  0  0
 76157  1  0  0  0  0
 77164  1  0  0  0  0
 78158  1  0  0  0  0
 78159  1  0  0  0  0
 78160  1  0  0  0  0
 79161  1  0  0  0  0
 79162  1  0  0  0  0
 79163  1  0  0  0  0
 80166  1  0  0  0  0
 80167  1  0  0  0  0
 80168  1  0  0  0  0
M  END
> <PUBCHEM_COMPOUND_CID>
102165354

> <PUBCHEM_COMPOUND_CANONICALIZED>
1

> <PUBCHEM_CACTVS_COMPLEXITY>
2170

> <PUBCHEM_CACTVS_HBOND_ACCEPTOR>
20

> <PUBCHEM_CACTVS_HBOND_DONOR>
2

> <PUBCHEM_CACTVS_ROTATABLE_BOND>
22

> <PUBCHEM_CACTVS_SUBSKEYS>
AAADcfB8PgAAAAAAAAAAAAAAAAAAAYAAAAA0aJEiAAAAAACBAAAAGgAACAAAD1SwmAMyCIAABgCIAqDSCAACAAAgAAAIiAEAAMgZNDaAMRCicAAl4AAPqYfK7PzPgAAAAAAAAABAAAAAAAAAAAAADAAAAA==

> <PUBCHEM_IUPAC_OPENEYE_NAME>
[(1R)-1-[(1R,2S)-2-(1-acetoxyethyl)-2-hydroxy-1-methyl-5-oxo-cyclopentyl]-2-[(1R,6S,8aR)-6-[(2R,4S,5R,6R)-5-[(2S,4S,5R,6S)-5-[(2S,4S,5R,6R)-5-[(2S,4R,5S,6S)-5-hydroxy-4-methoxy-6-methyl-tetrahydropyran-2-yl]oxy-4-methoxy-6-methyl-tetrahydropyran-2-yl]oxy-4-methoxy-6-methyl-tetrahydropyran-2-yl]oxy-4-methoxy-6-methyl-tetrahydropyran-2-yl]oxy-8a-methyl-2-oxo-1,3,5,6,7,8-hexahydronaphthalen-1-yl]ethyl] (E)-3-phenylprop-2-enoate

> <PUBCHEM_IUPAC_CAS_NAME>
(E)-3-phenyl-2-propenoic acid [(1R)-1-[(1R,2S)-2-(1-acetyloxyethyl)-2-hydroxy-1-methyl-5-oxocyclopentyl]-2-[(1R,6S,8aR)-6-[[(2R,4S,5R,6R)-5-[[(2S,4S,5R,6S)-5-[[(2S,4S,5R,6R)-5-[[(2S,4R,5S,6S)-5-hydroxy-4-methoxy-6-methyl-2-oxanyl]oxy]-4-methoxy-6-methyl-2-oxanyl]oxy]-4-methoxy-6-methyl-2-oxanyl]oxy]-4-methoxy-6-methyl-2-oxanyl]oxy]-8a-methyl-2-oxo-1,3,5,6,7,8-hexahydronaphthalen-1-yl]ethyl] ester

> <PUBCHEM_IUPAC_NAME_MARKUP>
[(1<I>R</I>)-1-[(1<I>R</I>,2<I>S</I>)-2-(1-acetyloxyethyl)-2-hydroxy-1-methyl-5-oxocyclopentyl]-2-[(1<I>R</I>,6<I>S</I>,8<I>a</I><I>R</I>)-6-[(2<I>R</I>,4<I>S</I>,5<I>R</I>,6<I>R</I>)-5-[(2<I>S</I>,4<I>S</I>,5<I>R</I>,6<I>S</I>)-5-[(2<I>S</I>,4<I>S</I>,5<I>R</I>,6<I>R</I>)-5-[(2<I>S</I>,4<I>R</I>,5<I>S</I>,6<I>S</I>)-5-hydroxy-4-methoxy-6-methyloxan-2-yl]oxy-4-methoxy-6-methyloxan-2-yl]oxy-4-methoxy-6-methyloxan-2-yl]oxy-4-methoxy-6-methyloxan-2-yl]oxy-8<I>a</I>-methyl-2-oxo-1,3,5,6,7,8-hexahydronaphthalen-1-yl]ethyl] (<I>E</I>)-3-phenylprop-2-enoate

> <PUBCHEM_IUPAC_NAME>
[(1R)-1-[(1R,2S)-2-(1-acetyloxyethyl)-2-hydroxy-1-methyl-5-oxocyclopentyl]-2-[(1R,6S,8aR)-6-[(2R,4S,5R,6R)-5-[(2S,4S,5R,6S)-5-[(2S,4S,5R,6R)-5-[(2S,4R,5S,6S)-5-hydroxy-4-methoxy-6-methyloxan-2-yl]oxy-4-methoxy-6-methyloxan-2-yl]oxy-4-methoxy-6-methyloxan-2-yl]oxy-4-methoxy-6-methyloxan-2-yl]oxy-8a-methyl-2-oxo-1,3,5,6,7,8-hexahydronaphthalen-1-yl]ethyl] (E)-3-phenylprop-2-enoate

> <PUBCHEM_IUPAC_SYSTEMATIC_NAME>
[(1R)-1-[(1R,2S)-2-(1-acetyloxyethyl)-1-methyl-2-oxidanyl-5-oxidanylidene-cyclopentyl]-2-[(1R,6S,8aR)-6-[(2R,4S,5R,6R)-4-methoxy-5-[(2S,4S,5R,6S)-4-methoxy-5-[(2S,4S,5R,6R)-4-methoxy-5-[(2S,4R,5S,6S)-4-methoxy-6-methyl-5-oxidanyl-oxan-2-yl]oxy-6-methyl-oxan-2-yl]oxy-6-methyl-oxan-2-yl]oxy-6-methyl-oxan-2-yl]oxy-8a-methyl-2-oxidanylidene-1,3,5,6,7,8-hexahydronaphthalen-1-yl]ethyl] (E)-3-phenylprop-2-enoate

> <PUBCHEM_IUPAC_TRADITIONAL_NAME>
(E)-3-phenylacrylic acid [(1R)-1-[(1R,2S)-2-(1-acetoxyethyl)-2-hydroxy-5-keto-1-methyl-cyclopentyl]-2-[(1R,6S,8aR)-6-[(2R,4S,5R,6R)-5-[(2S,4S,5R,6S)-5-[(2S,4S,5R,6R)-5-[(2S,4R,5S,6S)-5-hydroxy-4-methoxy-6-methyl-tetrahydropyran-2-yl]oxy-4-methoxy-6-methyl-tetrahydropyran-2-yl]oxy-4-methoxy-6-methyl-tetrahydropyran-2-yl]oxy-4-methoxy-6-methyl-tetrahydropyran-2-yl]oxy-2-keto-8a-methyl-1,3,5,6,7,8-hexahydronaphthalen-1-yl]ethyl] ester

> <PUBCHEM_IUPAC_INCHI>
InChI=1S/C60H88O20/c1-32-54(65)43(67-9)28-51(71-32)78-56-34(3)73-53(30-45(56)69-11)80-57-35(4)74-52(31-46(57)70-12)79-55-33(2)72-50(29-44(55)68-10)76-40-22-24-58(7)39(26-40)19-20-42(62)41(58)27-48(77-49(64)21-18-38-16-14-13-15-17-38)59(8)47(63)23-25-60(59,66)36(5)75-37(6)61/h13-19,21,32-36,40-41,43-46,48,50-57,65-66H,20,22-31H2,1-12H3/b21-18+/t32-,33+,34+,35-,36?,40-,41-,43+,44-,45-,46-,48+,50-,51-,52-,53-,54-,55+,56+,57+,58-,59+,60+/m0/s1

> <PUBCHEM_IUPAC_INCHIKEY>
DXGMFVJSUTZNST-VWNJJZRVSA-N

> <PUBCHEM_XLOGP3_AA>
4.6

> <PUBCHEM_EXACT_MASS>
1128.586895

> <PUBCHEM_MOLECULAR_FORMULA>
C60H88O20

> <PUBCHEM_MOLECULAR_WEIGHT>
1129.3

> <PUBCHEM_OPENEYE_CAN_SMILES>
CC1C(C(CC(O1)OC2C(OC(CC2OC)OC3C(OC(CC3OC)OC4C(OC(CC4OC)OC5CCC6(C(C(=O)CC=C6C5)CC(C7(C(=O)CCC7(C(C)OC(=O)C)O)C)OC(=O)C=CC8=CC=CC=C8)C)C)C)C)OC)O

> <PUBCHEM_OPENEYE_ISO_SMILES>
C[C@H]1[C@@H]([C@@H](C[C@@H](O1)O[C@@H]2[C@H](O[C@H](C[C@@H]2OC)O[C@@H]3[C@@H](O[C@H](C[C@@H]3OC)O[C@@H]4[C@H](O[C@H](C[C@@H]4OC)O[C@H]5CC[C@@]6([C@H](C(=O)CC=C6C5)C[C@H]([C@]7(C(=O)CC[C@]7(C(C)OC(=O)C)O)C)OC(=O)/C=C/C8=CC=CC=C8)C)C)C)C)OC)O

> <PUBCHEM_CACTVS_TPSA>
238

> <PUBCHEM_MONOISOTOPIC_WEIGHT>
1128.586895

> <PUBCHEM_TOTAL_CHARGE>
0

> <PUBCHEM_HEAVY_ATOM_COUNT>
80

> <PUBCHEM_ATOM_DEF_STEREO_COUNT>
22

> <PUBCHEM_ATOM_UDEF_STEREO_COUNT>
1

> <PUBCHEM_BOND_DEF_STEREO_COUNT>
1

> <PUBCHEM_BOND_UDEF_STEREO_COUNT>
0

> <PUBCHEM_ISOTOPIC_ATOM_COUNT>
0

> <PUBCHEM_COMPONENT_COUNT>
1

> <PUBCHEM_CACTVS_TAUTO_COUNT>
-1

> <PUBCHEM_COORDINATE_TYPE>
1
5
255

> <PUBCHEM_BONDANNOTATIONS>
23  1  6
45  10  5
56  13  6
59  13  5
55  14  6
63  16  6
66  16  6
64  17  6
72  19  6
25  2  6
73  20  6
21  34  6
22  38  5
24  26  5
36  3  5
42  3  6
32  41  3
48  51  6
57  61  6
60  67  8
60  68  8
65  69  5
67  75  8
68  76  8
74  79  5
75  77  8
76  77  8
46  8  5
52  8  5

$$$$
