5364677
  -OEChem-09022009252D

100 99  0     0  0  0  0  0  0999 V2000
   13.2583   -2.2500    0.0000 O   0  0  0  0  0  0  0  0  0  0  0  0
   12.3923   -3.7500    0.0000 O   0  0  0  0  0  0  0  0  0  0  0  0
   17.5885   -2.7500    0.0000 C   0  0  0  0  0  0  0  0  0  0  0  0
   16.7224   -2.2500    0.0000 C   0  0  0  0  0  0  0  0  0  0  0  0
   18.4545   -2.2500    0.0000 C   0  0  0  0  0  0  0  0  0  0  0  0
   15.8564   -2.7500    0.0000 C   0  0  0  0  0  0  0  0  0  0  0  0
   19.3205   -2.7500    0.0000 C   0  0  0  0  0  0  0  0  0  0  0  0
    8.9282   -2.7500    0.0000 C   0  0  0  0  0  0  0  0  0  0  0  0
   22.7846    0.2500    0.0000 C   0  0  0  0  0  0  0  0  0  0  0  0
   23.6506    0.7500    0.0000 C   0  0  0  0  0  0  0  0  0  0  0  0
    8.0622   -2.2500    0.0000 C   0  0  0  0  0  0  0  0  0  0  0  0
    9.7942   -2.2500    0.0000 C   0  0  0  0  0  0  0  0  0  0  0  0
   22.7846   -0.7500    0.0000 C   0  0  0  0  0  0  0  0  0  0  0  0
   14.9904   -2.2500    0.0000 C   0  0  0  0  0  0  0  0  0  0  0  0
   23.6506    1.7500    0.0000 C   0  0  0  0  0  0  0  0  0  0  0  0
   20.1865   -2.2500    0.0000 C   0  0  0  0  0  0  0  0  0  0  0  0
    7.1962   -2.7500    0.0000 C   0  0  0  0  0  0  0  0  0  0  0  0
   10.6603   -2.7500    0.0000 C   0  0  0  0  0  0  0  0  0  0  0  0
   21.9186   -1.2500    0.0000 C   0  0  0  0  0  0  0  0  0  0  0  0
   24.5167    2.2500    0.0000 C   0  0  0  0  0  0  0  0  0  0  0  0
    6.3301   -2.2500    0.0000 C   0  0  0  0  0  0  0  0  0  0  0  0
   14.1244   -2.7500    0.0000 C   0  0  0  0  0  0  0  0  0  0  0  0
   11.5263   -2.2500    0.0000 C   0  0  0  0  0  0  0  0  0  0  0  0
   21.0526   -2.7500    0.0000 C   0  0  0  0  0  0  0  0  0  0  0  0
   21.9186   -2.2500    0.0000 C   0  0  0  0  0  0  0  0  0  0  0  0
   24.5167    3.2500    0.0000 C   0  0  0  0  0  0  0  0  0  0  0  0
    3.7320   -0.7500    0.0000 C   0  0  0  0  0  0  0  0  0  0  0  0
    3.7320    0.2500    0.0000 C   0  0  0  0  0  0  0  0  0  0  0  0
    4.5981   -1.2500    0.0000 C   0  0  0  0  0  0  0  0  0  0  0  0
    5.4641   -2.7500    0.0000 C   0  0  0  0  0  0  0  0  0  0  0  0
   12.3923   -2.7500    0.0000 C   0  0  0  0  0  0  0  0  0  0  0  0
    2.8660    0.7500    0.0000 C   0  0  0  0  0  0  0  0  0  0  0  0
    4.5981   -2.2500    0.0000 C   0  0  0  0  0  0  0  0  0  0  0  0
   25.3827    3.7500    0.0000 C   0  0  0  0  0  0  0  0  0  0  0  0
    2.8660    1.7500    0.0000 C   0  0  0  0  0  0  0  0  0  0  0  0
    2.0000    2.2500    0.0000 C   0  0  0  0  0  0  0  0  0  0  0  0
   17.1899   -3.2250    0.0000 H   0  0  0  0  0  0  0  0  0  0  0  0
   17.9870   -3.2250    0.0000 H   0  0  0  0  0  0  0  0  0  0  0  0
   17.1210   -1.7750    0.0000 H   0  0  0  0  0  0  0  0  0  0  0  0
   16.3239   -1.7750    0.0000 H   0  0  0  0  0  0  0  0  0  0  0  0
   18.8530   -1.7750    0.0000 H   0  0  0  0  0  0  0  0  0  0  0  0
   18.0560   -1.7750    0.0000 H   0  0  0  0  0  0  0  0  0  0  0  0
   15.4579   -3.2250    0.0000 H   0  0  0  0  0  0  0  0  0  0  0  0
   16.2549   -3.2250    0.0000 H   0  0  0  0  0  0  0  0  0  0  0  0
   18.9220   -3.2250    0.0000 H   0  0  0  0  0  0  0  0  0  0  0  0
   19.7190   -3.2250    0.0000 H   0  0  0  0  0  0  0  0  0  0  0  0
    8.5297   -3.2250    0.0000 H   0  0  0  0  0  0  0  0  0  0  0  0
    9.3267   -3.2250    0.0000 H   0  0  0  0  0  0  0  0  0  0  0  0
   22.5726    0.8326    0.0000 H   0  0  0  0  0  0  0  0  0  0  0  0
   22.1740    0.1423    0.0000 H   0  0  0  0  0  0  0  0  0  0  0  0
   23.8627    0.1674    0.0000 H   0  0  0  0  0  0  0  0  0  0  0  0
   24.2612    0.8577    0.0000 H   0  0  0  0  0  0  0  0  0  0  0  0
    8.4607   -1.7750    0.0000 H   0  0  0  0  0  0  0  0  0  0  0  0
    7.6636   -1.7750    0.0000 H   0  0  0  0  0  0  0  0  0  0  0  0
   10.1928   -1.7750    0.0000 H   0  0  0  0  0  0  0  0  0  0  0  0
    9.3957   -1.7750    0.0000 H   0  0  0  0  0  0  0  0  0  0  0  0
   22.9967   -1.3326    0.0000 H   0  0  0  0  0  0  0  0  0  0  0  0
   23.3952   -0.6423    0.0000 H   0  0  0  0  0  0  0  0  0  0  0  0
   15.3889   -1.7750    0.0000 H   0  0  0  0  0  0  0  0  0  0  0  0
   14.5919   -1.7750    0.0000 H   0  0  0  0  0  0  0  0  0  0  0  0
   23.4386    2.3326    0.0000 H   0  0  0  0  0  0  0  0  0  0  0  0
   23.0401    1.6423    0.0000 H   0  0  0  0  0  0  0  0  0  0  0  0
   20.5851   -1.7750    0.0000 H   0  0  0  0  0  0  0  0  0  0  0  0
   19.7880   -1.7750    0.0000 H   0  0  0  0  0  0  0  0  0  0  0  0
    6.7976   -3.2250    0.0000 H   0  0  0  0  0  0  0  0  0  0  0  0
    7.5947   -3.2250    0.0000 H   0  0  0  0  0  0  0  0  0  0  0  0
   10.2617   -3.2250    0.0000 H   0  0  0  0  0  0  0  0  0  0  0  0
   11.0588   -3.2250    0.0000 H   0  0  0  0  0  0  0  0  0  0  0  0
   21.7065   -0.6674    0.0000 H   0  0  0  0  0  0  0  0  0  0  0  0
   21.3080   -1.3577    0.0000 H   0  0  0  0  0  0  0  0  0  0  0  0
   24.7287    1.6674    0.0000 H   0  0  0  0  0  0  0  0  0  0  0  0
   25.1272    2.3577    0.0000 H   0  0  0  0  0  0  0  0  0  0  0  0
    6.7287   -1.7750    0.0000 H   0  0  0  0  0  0  0  0  0  0  0  0
    5.9316   -1.7750    0.0000 H   0  0  0  0  0  0  0  0  0  0  0  0
   13.7258   -3.2250    0.0000 H   0  0  0  0  0  0  0  0  0  0  0  0
   14.5229   -3.2250    0.0000 H   0  0  0  0  0  0  0  0  0  0  0  0
   11.9248   -1.7750    0.0000 H   0  0  0  0  0  0  0  0  0  0  0  0
   11.1278   -1.7750    0.0000 H   0  0  0  0  0  0  0  0  0  0  0  0
   21.0526   -3.3700    0.0000 H   0  0  0  0  0  0  0  0  0  0  0  0
   22.4555   -2.5600    0.0000 H   0  0  0  0  0  0  0  0  0  0  0  0
   24.3046    3.8326    0.0000 H   0  0  0  0  0  0  0  0  0  0  0  0
   23.9061    3.1423    0.0000 H   0  0  0  0  0  0  0  0  0  0  0  0
    3.1215   -0.6423    0.0000 H   0  0  0  0  0  0  0  0  0  0  0  0
    3.5200   -1.3326    0.0000 H   0  0  0  0  0  0  0  0  0  0  0  0
    4.3426    0.1423    0.0000 H   0  0  0  0  0  0  0  0  0  0  0  0
    3.9441    0.8326    0.0000 H   0  0  0  0  0  0  0  0  0  0  0  0
    5.2087   -1.3577    0.0000 H   0  0  0  0  0  0  0  0  0  0  0  0
    4.8101   -0.6674    0.0000 H   0  0  0  0  0  0  0  0  0  0  0  0
    5.4641   -3.3700    0.0000 H   0  0  0  0  0  0  0  0  0  0  0  0
    2.2554    0.8577    0.0000 H   0  0  0  0  0  0  0  0  0  0  0  0
    2.6540    0.1674    0.0000 H   0  0  0  0  0  0  0  0  0  0  0  0
    4.0611   -2.5600    0.0000 H   0  0  0  0  0  0  0  0  0  0  0  0
   25.6927    3.2131    0.0000 H   0  0  0  0  0  0  0  0  0  0  0  0
   25.9196    4.0600    0.0000 H   0  0  0  0  0  0  0  0  0  0  0  0
   25.0727    4.2869    0.0000 H   0  0  0  0  0  0  0  0  0  0  0  0
    3.4766    1.6423    0.0000 H   0  0  0  0  0  0  0  0  0  0  0  0
    3.0781    2.3326    0.0000 H   0  0  0  0  0  0  0  0  0  0  0  0
    2.3100    2.7869    0.0000 H   0  0  0  0  0  0  0  0  0  0  0  0
    1.4631    2.5600    0.0000 H   0  0  0  0  0  0  0  0  0  0  0  0
    1.6900    1.7131    0.0000 H   0  0  0  0  0  0  0  0  0  0  0  0
  1 22  1  0  0  0  0
  1 31  1  0  0  0  0
  2 31  2  0  0  0  0
  3  4  1  0  0  0  0
  3  5  1  0  0  0  0
  3 37  1  0  0  0  0
  3 38  1  0  0  0  0
  4  6  1  0  0  0  0
  4 39  1  0  0  0  0
  4 40  1  0  0  0  0
  5  7  1  0  0  0  0
  5 41  1  0  0  0  0
  5 42  1  0  0  0  0
  6 14  1  0  0  0  0
  6 43  1  0  0  0  0
  6 44  1  0  0  0  0
  7 16  1  0  0  0  0
  7 45  1  0  0  0  0
  7 46  1  0  0  0  0
  8 11  1  0  0  0  0
  8 12  1  0  0  0  0
  8 47  1  0  0  0  0
  8 48  1  0  0  0  0
  9 10  1  0  0  0  0
  9 13  1  0  0  0  0
  9 49  1  0  0  0  0
  9 50  1  0  0  0  0
 10 15  1  0  0  0  0
 10 51  1  0  0  0  0
 10 52  1  0  0  0  0
 11 17  1  0  0  0  0
 11 53  1  0  0  0  0
 11 54  1  0  0  0  0
 12 18  1  0  0  0  0
 12 55  1  0  0  0  0
 12 56  1  0  0  0  0
 13 19  1  0  0  0  0
 13 57  1  0  0  0  0
 13 58  1  0  0  0  0
 14 22  1  0  0  0  0
 14 59  1  0  0  0  0
 14 60  1  0  0  0  0
 15 20  1  0  0  0  0
 15 61  1  0  0  0  0
 15 62  1  0  0  0  0
 16 24  1  0  0  0  0
 16 63  1  0  0  0  0
 16 64  1  0  0  0  0
 17 21  1  0  0  0  0
 17 65  1  0  0  0  0
 17 66  1  0  0  0  0
 18 23  1  0  0  0  0
 18 67  1  0  0  0  0
 18 68  1  0  0  0  0
 19 25  1  0  0  0  0
 19 69  1  0  0  0  0
 19 70  1  0  0  0  0
 20 26  1  0  0  0  0
 20 71  1  0  0  0  0
 20 72  1  0  0  0  0
 21 30  1  0  0  0  0
 21 73  1  0  0  0  0
 21 74  1  0  0  0  0
 22 75  1  0  0  0  0
 22 76  1  0  0  0  0
 23 31  1  0  0  0  0
 23 77  1  0  0  0  0
 23 78  1  0  0  0  0
 24 25  2  0  0  0  0
 24 79  1  0  0  0  0
 25 80  1  0  0  0  0
 26 34  1  0  0  0  0
 26 81  1  0  0  0  0
 26 82  1  0  0  0  0
 27 28  1  0  0  0  0
 27 29  1  0  0  0  0
 27 83  1  0  0  0  0
 27 84  1  0  0  0  0
 28 32  1  0  0  0  0
 28 85  1  0  0  0  0
 28 86  1  0  0  0  0
 29 33  1  0  0  0  0
 29 87  1  0  0  0  0
 29 88  1  0  0  0  0
 30 33  2  0  0  0  0
 30 89  1  0  0  0  0
 32 35  1  0  0  0  0
 32 90  1  0  0  0  0
 32 91  1  0  0  0  0
 33 92  1  0  0  0  0
 34 93  1  0  0  0  0
 34 94  1  0  0  0  0
 34 95  1  0  0  0  0
 35 36  1  0  0  0  0
 35 96  1  0  0  0  0
 35 97  1  0  0  0  0
 36 98  1  0  0  0  0
 36 99  1  0  0  0  0
 36100  1  0  0  0  0
M  END
> <PUBCHEM_COMPOUND_CID>
5364677

> <PUBCHEM_COMPOUND_CANONICALIZED>
1

> <PUBCHEM_CACTVS_COMPLEXITY>
480

> <PUBCHEM_CACTVS_HBOND_ACCEPTOR>
2

> <PUBCHEM_CACTVS_HBOND_DONOR>
0

> <PUBCHEM_CACTVS_ROTATABLE_BOND>
30

> <PUBCHEM_CACTVS_SUBSKEYS>
AAADcfB8MAAAAAAAAAAAAAAAAAAAAAAAAAAAAAAAAAAAAAAAAAAAGgAAAAAACACggAICCAAABACIACDSCAAAAAAgAAAICAEAAAgAABIAAQACAAAEgAAIAAOIyKCAAAAAAAAAAAAAAAAAAAAAAAAAAAAAAA==

> <PUBCHEM_IUPAC_OPENEYE_NAME>
[(Z)-octadec-9-enyl] (Z)-hexadec-9-enoate

> <PUBCHEM_IUPAC_CAS_NAME>
(Z)-9-hexadecenoic acid [(Z)-octadec-9-enyl] ester

> <PUBCHEM_IUPAC_NAME_MARKUP>
[(<I>Z</I>)-octadec-9-enyl] (<I>Z</I>)-hexadec-9-enoate

> <PUBCHEM_IUPAC_NAME>
[(Z)-octadec-9-enyl] (Z)-hexadec-9-enoate

> <PUBCHEM_IUPAC_SYSTEMATIC_NAME>
[(Z)-octadec-9-enyl] (Z)-hexadec-9-enoate

> <PUBCHEM_IUPAC_TRADITIONAL_NAME>
(Z)-hexadec-9-enoic acid [(Z)-octadec-9-enyl] ester

> <PUBCHEM_IUPAC_INCHI>
InChI=1S/C34H64O2/c1-3-5-7-9-11-13-15-17-18-19-21-23-25-27-29-31-33-36-34(35)32-30-28-26-24-22-20-16-14-12-10-8-6-4-2/h14,16-18H,3-13,15,19-33H2,1-2H3/b16-14-,18-17-

> <PUBCHEM_IUPAC_INCHIKEY>
AJQOBPHRBMLQRX-LJSPAGPLSA-N

> <PUBCHEM_XLOGP3_AA>
14.4

> <PUBCHEM_EXACT_MASS>
504.490631

> <PUBCHEM_MOLECULAR_FORMULA>
C34H64O2

> <PUBCHEM_MOLECULAR_WEIGHT>
504.9

> <PUBCHEM_OPENEYE_CAN_SMILES>
CCCCCCCCC=CCCCCCCCCOC(=O)CCCCCCCC=CCCCCCC

> <PUBCHEM_OPENEYE_ISO_SMILES>
CCCCCCCC/C=C\CCCCCCCCOC(=O)CCCCCCC/C=C\CCCCCC

> <PUBCHEM_CACTVS_TPSA>
26.3

> <PUBCHEM_MONOISOTOPIC_WEIGHT>
504.490631

> <PUBCHEM_TOTAL_CHARGE>
0

> <PUBCHEM_HEAVY_ATOM_COUNT>
36

> <PUBCHEM_ATOM_DEF_STEREO_COUNT>
0

> <PUBCHEM_ATOM_UDEF_STEREO_COUNT>
0

> <PUBCHEM_BOND_DEF_STEREO_COUNT>
2

> <PUBCHEM_BOND_UDEF_STEREO_COUNT>
0

> <PUBCHEM_ISOTOPIC_ATOM_COUNT>
0

> <PUBCHEM_COMPONENT_COUNT>
1

> <PUBCHEM_CACTVS_TAUTO_COUNT>
-1

> <PUBCHEM_COORDINATE_TYPE>
1
5
255

$$$$
