159495
  -OEChem-09022005092D

 63 63  0     0  0  0  0  0  0999 V2000
    7.9409    1.5000    0.0000 Cl  0  0  0  0  0  0  0  0  0  0  0  0
    9.6730    1.5000    0.0000 Cl  0  0  0  0  0  0  0  0  0  0  0  0
    8.8070    0.0000    0.0000 Cl  0  0  0  0  0  0  0  0  0  0  0  0
    8.8070    1.0000    0.0000 P   0  0  0  0  0  0  0  0  0  0  0  0
    0.5369    5.2615    0.0000 O   0  0  0  0  0  0  0  0  0  0  0  0
    2.2690    6.2615    0.0000 C   0  0  0  0  0  0  0  0  0  0  0  0
    4.0010    3.2615    0.0000 C   0  0  0  0  0  0  0  0  0  0  0  0
    2.2690    5.2615    0.0000 C   0  0  0  0  0  0  0  0  0  0  0  0
    3.1350    3.7615    0.0000 C   0  0  0  0  0  0  0  0  0  0  0  0
    3.1350    4.7615    0.0000 C   0  0  0  0  0  0  0  0  0  0  0  0
    2.2690    7.2615    0.0000 C   0  0  0  0  0  0  0  0  0  0  0  0
    3.2690    6.2615    0.0000 C   0  0  0  0  0  0  0  0  0  0  0  0
    1.2690    6.2615    0.0000 C   0  0  0  0  0  0  0  0  0  0  0  0
    4.8671    2.7615    0.0000 C   0  0  0  0  0  0  0  0  0  0  0  0
    3.5010    2.3955    0.0000 C   0  0  0  0  0  0  0  0  0  0  0  0
    4.5010    4.1275    0.0000 C   0  0  0  0  0  0  0  0  0  0  0  0
    1.4030    4.7615    0.0000 C   0  0  0  0  0  0  0  0  0  0  0  0
    2.2690    3.2615    0.0000 C   0  0  0  0  0  0  0  0  0  0  0  0
    1.4030    3.7615    0.0000 C   0  0  0  0  0  0  0  0  0  0  0  0
    8.8070    7.1200    0.0000 C   0  0  0  0  0  0  0  0  0  0  0  0
    8.8070    6.1200    0.0000 C   0  0  0  0  0  0  0  0  0  0  0  0
    9.6730    7.6200    0.0000 C   0  0  0  0  0  0  0  0  0  0  0  0
    7.9409    5.6200    0.0000 C   0  0  0  0  0  0  0  0  0  0  0  0
    7.9409    7.6200    0.0000 C   0  0  0  0  0  0  0  0  0  0  0  0
    9.6730    5.6200    0.0000 C   0  0  0  0  0  0  0  0  0  0  0  0
    9.6730    8.6200    0.0000 C   0  0  0  0  0  0  0  0  0  0  0  0
    7.9409    4.6200    0.0000 C   0  0  0  0  0  0  0  0  0  0  0  0
    7.9409    8.6200    0.0000 C   0  0  0  0  0  0  0  0  0  0  0  0
    9.6730    4.6200    0.0000 C   0  0  0  0  0  0  0  0  0  0  0  0
    8.8070    9.1200    0.0000 C   0  0  0  0  0  0  0  0  0  0  0  0
    8.8070    4.1200    0.0000 C   0  0  0  0  0  0  0  0  0  0  0  0
    3.6720    5.0715    0.0000 H   0  0  0  0  0  0  0  0  0  0  0  0
    2.8890    7.2615    0.0000 H   0  0  0  0  0  0  0  0  0  0  0  0
    2.2690    7.8815    0.0000 H   0  0  0  0  0  0  0  0  0  0  0  0
    1.6490    7.2615    0.0000 H   0  0  0  0  0  0  0  0  0  0  0  0
    3.2690    5.6415    0.0000 H   0  0  0  0  0  0  0  0  0  0  0  0
    3.8890    6.2615    0.0000 H   0  0  0  0  0  0  0  0  0  0  0  0
    3.2690    6.8815    0.0000 H   0  0  0  0  0  0  0  0  0  0  0  0
    1.2690    6.8815    0.0000 H   0  0  0  0  0  0  0  0  0  0  0  0
    0.6490    6.2615    0.0000 H   0  0  0  0  0  0  0  0  0  0  0  0
    1.2690    5.6415    0.0000 H   0  0  0  0  0  0  0  0  0  0  0  0
    4.5571    2.2245    0.0000 H   0  0  0  0  0  0  0  0  0  0  0  0
    5.4040    2.4515    0.0000 H   0  0  0  0  0  0  0  0  0  0  0  0
    5.1771    3.2984    0.0000 H   0  0  0  0  0  0  0  0  0  0  0  0
    2.9641    2.7055    0.0000 H   0  0  0  0  0  0  0  0  0  0  0  0
    3.1910    1.8585    0.0000 H   0  0  0  0  0  0  0  0  0  0  0  0
    4.0380    2.0855    0.0000 H   0  0  0  0  0  0  0  0  0  0  0  0
    5.0380    3.8175    0.0000 H   0  0  0  0  0  0  0  0  0  0  0  0
    4.8110    4.6644    0.0000 H   0  0  0  0  0  0  0  0  0  0  0  0
    3.9641    4.4375    0.0000 H   0  0  0  0  0  0  0  0  0  0  0  0
    2.2690    2.6415    0.0000 H   0  0  0  0  0  0  0  0  0  0  0  0
    0.8660    3.4515    0.0000 H   0  0  0  0  0  0  0  0  0  0  0  0
    0.0000    4.9515    0.0000 H   0  0  0  0  0  0  0  0  0  0  0  0
   10.2099    7.3100    0.0000 H   0  0  0  0  0  0  0  0  0  0  0  0
    7.4040    5.9300    0.0000 H   0  0  0  0  0  0  0  0  0  0  0  0
    7.4040    7.3100    0.0000 H   0  0  0  0  0  0  0  0  0  0  0  0
   10.2099    5.9300    0.0000 H   0  0  0  0  0  0  0  0  0  0  0  0
   10.2099    8.9300    0.0000 H   0  0  0  0  0  0  0  0  0  0  0  0
    7.4040    4.3100    0.0000 H   0  0  0  0  0  0  0  0  0  0  0  0
    7.4040    8.9300    0.0000 H   0  0  0  0  0  0  0  0  0  0  0  0
   10.2099    4.3100    0.0000 H   0  0  0  0  0  0  0  0  0  0  0  0
    8.8070    9.7400    0.0000 H   0  0  0  0  0  0  0  0  0  0  0  0
    8.8070    3.5000    0.0000 H   0  0  0  0  0  0  0  0  0  0  0  0
  1  4  1  0  0  0  0
  2  4  1  0  0  0  0
  3  4  1  0  0  0  0
  5 17  1  0  0  0  0
  5 53  1  0  0  0  0
  6  8  1  0  0  0  0
  6 11  1  0  0  0  0
  6 12  1  0  0  0  0
  6 13  1  0  0  0  0
  7  9  1  0  0  0  0
  7 14  1  0  0  0  0
  7 15  1  0  0  0  0
  7 16  1  0  0  0  0
  8 10  1  0  0  0  0
  8 17  2  0  0  0  0
  9 10  2  0  0  0  0
  9 18  1  0  0  0  0
 10 32  1  0  0  0  0
 11 33  1  0  0  0  0
 11 34  1  0  0  0  0
 11 35  1  0  0  0  0
 12 36  1  0  0  0  0
 12 37  1  0  0  0  0
 12 38  1  0  0  0  0
 13 39  1  0  0  0  0
 13 40  1  0  0  0  0
 13 41  1  0  0  0  0
 14 42  1  0  0  0  0
 14 43  1  0  0  0  0
 14 44  1  0  0  0  0
 15 45  1  0  0  0  0
 15 46  1  0  0  0  0
 15 47  1  0  0  0  0
 16 48  1  0  0  0  0
 16 49  1  0  0  0  0
 16 50  1  0  0  0  0
 17 19  1  0  0  0  0
 18 19  2  0  0  0  0
 18 51  1  0  0  0  0
 19 52  1  0  0  0  0
 20 21  1  0  0  0  0
 20 22  2  0  0  0  0
 20 24  1  0  0  0  0
 21 23  2  0  0  0  0
 21 25  1  0  0  0  0
 22 26  1  0  0  0  0
 22 54  1  0  0  0  0
 23 27  1  0  0  0  0
 23 55  1  0  0  0  0
 24 28  2  0  0  0  0
 24 56  1  0  0  0  0
 25 29  2  0  0  0  0
 25 57  1  0  0  0  0
 26 30  2  0  0  0  0
 26 58  1  0  0  0  0
 27 31  2  0  0  0  0
 27 59  1  0  0  0  0
 28 30  1  0  0  0  0
 28 60  1  0  0  0  0
 29 31  1  0  0  0  0
 29 61  1  0  0  0  0
 30 62  1  0  0  0  0
 31 63  1  0  0  0  0
M  END
> <PUBCHEM_COMPOUND_CID>
159495

> <PUBCHEM_COMPOUND_CANONICALIZED>
1

> <PUBCHEM_CACTVS_COMPLEXITY>
314

> <PUBCHEM_CACTVS_HBOND_ACCEPTOR>
1

> <PUBCHEM_CACTVS_HBOND_DONOR>
1

> <PUBCHEM_CACTVS_ROTATABLE_BOND>
3

> <PUBCHEM_CACTVS_SUBSKEYS>
AAADcfB4IAIGAAAAAAAAAAAAAAAAAAAAAAAwYMAAAAAAAAABUAAAGgAACAAADgSAmAAyBoAAAgCAAiBCAAACAAAgIAAIiAAGCIgIJiKCERKAcAAkwBEImAeAwPAPoAACAAAIAABAAAQAABAAAAAAAAAAAA==

> <PUBCHEM_IUPAC_OPENEYE_NAME>
biphenyl;2,4-ditert-butylphenol;trichlorophosphane

> <PUBCHEM_IUPAC_CAS_NAME>
1,1'-biphenyl;2,4-ditert-butylphenol;trichlorophosphine

> <PUBCHEM_IUPAC_NAME_MARKUP>
1,1&apos;-biphenyl;2,4-di<I>tert</I>-butylphenol;trichlorophosphane

> <PUBCHEM_IUPAC_NAME>
1,1'-biphenyl;2,4-ditert-butylphenol;trichlorophosphane

> <PUBCHEM_IUPAC_SYSTEMATIC_NAME>
1,1'-biphenyl;2,4-ditert-butylphenol;tris(chloranyl)phosphane

> <PUBCHEM_IUPAC_TRADITIONAL_NAME>
biphenyl;2,4-ditert-butylphenol;trichlorophosphine

> <PUBCHEM_IUPAC_INCHI>
InChI=1S/C14H22O.C12H10.Cl3P/c1-13(2,3)10-7-8-12(15)11(9-10)14(4,5)6;1-3-7-11(8-4-1)12-9-5-2-6-10-12;1-4(2)3/h7-9,15H,1-6H3;1-10H;

> <PUBCHEM_IUPAC_INCHIKEY>
ZFUOUGCLKHYEIY-UHFFFAOYSA-N

> <PUBCHEM_EXACT_MASS>
496.125636

> <PUBCHEM_MOLECULAR_FORMULA>
C26H32Cl3OP

> <PUBCHEM_MOLECULAR_WEIGHT>
497.9

> <PUBCHEM_OPENEYE_CAN_SMILES>
CC(C)(C)C1=CC(=C(C=C1)O)C(C)(C)C.C1=CC=C(C=C1)C2=CC=CC=C2.P(Cl)(Cl)Cl

> <PUBCHEM_OPENEYE_ISO_SMILES>
CC(C)(C)C1=CC(=C(C=C1)O)C(C)(C)C.C1=CC=C(C=C1)C2=CC=CC=C2.P(Cl)(Cl)Cl

> <PUBCHEM_CACTVS_TPSA>
20.2

> <PUBCHEM_MONOISOTOPIC_WEIGHT>
496.125636

> <PUBCHEM_TOTAL_CHARGE>
0

> <PUBCHEM_HEAVY_ATOM_COUNT>
31

> <PUBCHEM_ATOM_DEF_STEREO_COUNT>
0

> <PUBCHEM_ATOM_UDEF_STEREO_COUNT>
0

> <PUBCHEM_BOND_DEF_STEREO_COUNT>
0

> <PUBCHEM_BOND_UDEF_STEREO_COUNT>
0

> <PUBCHEM_ISOTOPIC_ATOM_COUNT>
0

> <PUBCHEM_COMPONENT_COUNT>
3

> <PUBCHEM_CACTVS_TAUTO_COUNT>
-1

> <PUBCHEM_COORDINATE_TYPE>
1
5
255

> <PUBCHEM_BONDANNOTATIONS>
17  19  8
18  19  8
20  22  8
20  24  8
21  23  8
21  25  8
22  26  8
23  27  8
24  28  8
25  29  8
26  30  8
27  31  8
28  30  8
29  31  8
8  10  8
8  17  8
9  10  8
9  18  8

$$$$
