131752673
  -OEChem-09042011412D

101102  0     1  0  0  0  0  0999 V2000
   10.3312    6.0000    0.0000 O   0  0  0  0  0  0  0  0  0  0  0  0
    9.4651    4.5000    0.0000 O   0  0  0  0  0  0  0  0  0  0  0  0
    4.2690   -5.5000    0.0000 O   0  0  0  0  0  0  0  0  0  0  0  0
    6.0010   -5.5000    0.0000 O   0  0  0  0  0  0  0  0  0  0  0  0
    7.7331    5.5000    0.0000 O   0  0  0  0  0  0  0  0  0  0  0  0
    7.7331    7.5000    0.0000 O   0  0  0  0  0  0  0  0  0  0  0  0
    9.4651    8.5000    0.0000 O   0  0  0  0  0  0  0  0  0  0  0  0
    4.2690   -8.5000    0.0000 O   0  0  0  0  0  0  0  0  0  0  0  0
    6.0010   -7.5000    0.0000 O   0  0  0  0  0  0  0  0  0  0  0  0
    2.5369   -7.5000    0.0000 O   0  0  0  0  0  0  0  0  0  0  0  0
   12.0632    5.0000    0.0000 O   0  0  0  0  0  0  0  0  0  0  0  0
   12.0632    7.0000    0.0000 O   0  0  0  0  0  0  0  0  0  0  0  0
    2.5369   -4.5000    0.0000 O   0  0  0  0  0  0  0  0  0  0  0  0
    8.5991    6.0000    0.0000 C   0  0  3  0  0  0  0  0  0  0  0  0
    8.5991    7.0000    0.0000 C   0  0  3  0  0  0  0  0  0  0  0  0
    9.4651    5.5000    0.0000 C   0  0  3  0  0  0  0  0  0  0  0  0
    9.4651    7.5000    0.0000 C   0  0  3  0  0  0  0  0  0  0  0  0
   10.3312    7.0000    0.0000 C   0  0  3  0  0  0  0  0  0  0  0  0
   10.3312    4.0000    0.0000 C   0  0  3  0  0  0  0  0  0  0  0  0
    4.2690   -7.5000    0.0000 C   0  0  3  0  0  0  0  0  0  0  0  0
    5.1350   -7.0000    0.0000 C   0  0  3  0  0  0  0  0  0  0  0  0
    3.4030   -7.0000    0.0000 C   0  0  3  0  0  0  0  0  0  0  0  0
    5.1350   -6.0000    0.0000 C   0  0  3  0  0  0  0  0  0  0  0  0
    3.4030   -6.0000    0.0000 C   0  0  3  0  0  0  0  0  0  0  0  0
   11.1972    4.5000    0.0000 C   0  0  0  0  0  0  0  0  0  0  0  0
   10.3312    3.0000    0.0000 C   0  0  0  0  0  0  0  0  0  0  0  0
    6.0010   -4.5000    0.0000 C   0  0  3  0  0  0  0  0  0  0  0  0
   11.1972    7.5000    0.0000 C   0  0  0  0  0  0  0  0  0  0  0  0
    9.4651    2.5000    0.0000 C   0  0  0  0  0  0  0  0  0  0  0  0
    2.5369   -5.5000    0.0000 C   0  0  0  0  0  0  0  0  0  0  0  0
   11.6972    3.6340    0.0000 C   0  0  0  0  0  0  0  0  0  0  0  0
   10.6972    5.3660    0.0000 C   0  0  0  0  0  0  0  0  0  0  0  0
    6.0010   -3.5000    0.0000 C   0  0  0  0  0  0  0  0  0  0  0  0
    5.0010   -4.5000    0.0000 C   0  0  0  0  0  0  0  0  0  0  0  0
    9.4651    1.5000    0.0000 C   0  0  0  0  0  0  0  0  0  0  0  0
    6.8671   -3.0000    0.0000 C   0  0  0  0  0  0  0  0  0  0  0  0
    7.0010   -4.5000    0.0000 C   0  0  0  0  0  0  0  0  0  0  0  0
    8.5991    1.0000    0.0000 C   0  0  0  0  0  0  0  0  0  0  0  0
    6.8671   -2.0000    0.0000 C   0  0  0  0  0  0  0  0  0  0  0  0
    8.5991    0.0000    0.0000 C   0  0  0  0  0  0  0  0  0  0  0  0
    7.7331   -0.5000    0.0000 C   0  0  0  0  0  0  0  0  0  0  0  0
   10.3312    1.0000    0.0000 C   0  0  0  0  0  0  0  0  0  0  0  0
    7.7331   -1.5000    0.0000 C   0  0  0  0  0  0  0  0  0  0  0  0
    7.5010   -5.3660    0.0000 C   0  0  0  0  0  0  0  0  0  0  0  0
    8.5991   -2.0000    0.0000 C   0  0  0  0  0  0  0  0  0  0  0  0
    8.0622    6.3100    0.0000 H   0  0  0  0  0  0  0  0  0  0  0  0
    8.5991    7.6200    0.0000 H   0  0  0  0  0  0  0  0  0  0  0  0
    8.9282    5.1900    0.0000 H   0  0  0  0  0  0  0  0  0  0  0  0
    8.9282    7.8100    0.0000 H   0  0  0  0  0  0  0  0  0  0  0  0
   10.8681    6.6900    0.0000 H   0  0  0  0  0  0  0  0  0  0  0  0
    9.7942    3.6900    0.0000 H   0  0  0  0  0  0  0  0  0  0  0  0
    3.7320   -7.8100    0.0000 H   0  0  0  0  0  0  0  0  0  0  0  0
    5.1350   -7.6200    0.0000 H   0  0  0  0  0  0  0  0  0  0  0  0
    3.4030   -7.6200    0.0000 H   0  0  0  0  0  0  0  0  0  0  0  0
    5.1350   -5.3800    0.0000 H   0  0  0  0  0  0  0  0  0  0  0  0
    3.4030   -5.3800    0.0000 H   0  0  0  0  0  0  0  0  0  0  0  0
   10.5432    2.4174    0.0000 H   0  0  0  0  0  0  0  0  0  0  0  0
   10.9417    3.1077    0.0000 H   0  0  0  0  0  0  0  0  0  0  0  0
   11.5957    7.9750    0.0000 H   0  0  0  0  0  0  0  0  0  0  0  0
   10.7987    7.9750    0.0000 H   0  0  0  0  0  0  0  0  0  0  0  0
    9.2531    3.0826    0.0000 H   0  0  0  0  0  0  0  0  0  0  0  0
    8.8546    2.3923    0.0000 H   0  0  0  0  0  0  0  0  0  0  0  0
    1.9264   -5.3923    0.0000 H   0  0  0  0  0  0  0  0  0  0  0  0
    2.3249   -6.0826    0.0000 H   0  0  0  0  0  0  0  0  0  0  0  0
   11.1603    3.3240    0.0000 H   0  0  0  0  0  0  0  0  0  0  0  0
   12.0072    3.0970    0.0000 H   0  0  0  0  0  0  0  0  0  0  0  0
   12.2341    3.9440    0.0000 H   0  0  0  0  0  0  0  0  0  0  0  0
   11.2341    5.6760    0.0000 H   0  0  0  0  0  0  0  0  0  0  0  0
   10.3872    5.9030    0.0000 H   0  0  0  0  0  0  0  0  0  0  0  0
   10.1603    5.0560    0.0000 H   0  0  0  0  0  0  0  0  0  0  0  0
    5.7890   -2.9174    0.0000 H   0  0  0  0  0  0  0  0  0  0  0  0
    5.3905   -3.6077    0.0000 H   0  0  0  0  0  0  0  0  0  0  0  0
    7.1962    5.8100    0.0000 H   0  0  0  0  0  0  0  0  0  0  0  0
    7.7331    8.1200    0.0000 H   0  0  0  0  0  0  0  0  0  0  0  0
   10.0021    8.8100    0.0000 H   0  0  0  0  0  0  0  0  0  0  0  0
    5.0010   -3.8800    0.0000 H   0  0  0  0  0  0  0  0  0  0  0  0
    4.3810   -4.5000    0.0000 H   0  0  0  0  0  0  0  0  0  0  0  0
    5.0010   -5.1200    0.0000 H   0  0  0  0  0  0  0  0  0  0  0  0
    3.7320   -8.8100    0.0000 H   0  0  0  0  0  0  0  0  0  0  0  0
    6.0010   -8.1200    0.0000 H   0  0  0  0  0  0  0  0  0  0  0  0
    2.0000   -7.1900    0.0000 H   0  0  0  0  0  0  0  0  0  0  0  0
    7.0791   -3.5826    0.0000 H   0  0  0  0  0  0  0  0  0  0  0  0
    7.4776   -2.8923    0.0000 H   0  0  0  0  0  0  0  0  0  0  0  0
   12.6002    4.6900    0.0000 H   0  0  0  0  0  0  0  0  0  0  0  0
    7.3110   -3.9631    0.0000 H   0  0  0  0  0  0  0  0  0  0  0  0
   12.6002    7.3100    0.0000 H   0  0  0  0  0  0  0  0  0  0  0  0
    8.0622    1.3100    0.0000 H   0  0  0  0  0  0  0  0  0  0  0  0
    6.3301   -1.6900    0.0000 H   0  0  0  0  0  0  0  0  0  0  0  0
    8.8112   -0.5826    0.0000 H   0  0  0  0  0  0  0  0  0  0  0  0
    9.2097    0.1077    0.0000 H   0  0  0  0  0  0  0  0  0  0  0  0
    7.5210    0.0826    0.0000 H   0  0  0  0  0  0  0  0  0  0  0  0
    7.1225   -0.6077    0.0000 H   0  0  0  0  0  0  0  0  0  0  0  0
   10.0212    0.4631    0.0000 H   0  0  0  0  0  0  0  0  0  0  0  0
   10.8681    0.6900    0.0000 H   0  0  0  0  0  0  0  0  0  0  0  0
   10.6412    1.5369    0.0000 H   0  0  0  0  0  0  0  0  0  0  0  0
    2.0000   -4.1900    0.0000 H   0  0  0  0  0  0  0  0  0  0  0  0
    7.1910   -5.9030    0.0000 H   0  0  0  0  0  0  0  0  0  0  0  0
    8.1210   -5.3660    0.0000 H   0  0  0  0  0  0  0  0  0  0  0  0
    8.2891   -2.5369    0.0000 H   0  0  0  0  0  0  0  0  0  0  0  0
    9.1360   -2.3100    0.0000 H   0  0  0  0  0  0  0  0  0  0  0  0
    8.9091   -1.4631    0.0000 H   0  0  0  0  0  0  0  0  0  0  0  0
  1 16  1  0  0  0  0
  1 18  1  0  0  0  0
  2 16  1  0  0  0  0
  2 19  1  0  0  0  0
  3 23  1  0  0  0  0
  3 24  1  0  0  0  0
  4 23  1  0  0  0  0
  4 27  1  0  0  0  0
  5 14  1  0  0  0  0
  5 73  1  0  0  0  0
  6 15  1  0  0  0  0
  6 74  1  0  0  0  0
  7 17  1  0  0  0  0
  7 75  1  0  0  0  0
  8 20  1  0  0  0  0
  8 79  1  0  0  0  0
  9 21  1  0  0  0  0
  9 80  1  0  0  0  0
 10 22  1  0  0  0  0
 10 81  1  0  0  0  0
 11 25  1  0  0  0  0
 11 84  1  0  0  0  0
 12 28  1  0  0  0  0
 12 86  1  0  0  0  0
 13 30  1  0  0  0  0
 13 96  1  0  0  0  0
 14 15  1  0  0  0  0
 14 16  1  0  0  0  0
 14 46  1  0  0  0  0
 15 17  1  0  0  0  0
 15 47  1  0  0  0  0
 16 48  1  0  0  0  0
 17 18  1  0  0  0  0
 17 49  1  0  0  0  0
 18 28  1  0  0  0  0
 18 50  1  0  0  0  0
 19 25  1  0  0  0  0
 19 26  1  0  0  0  0
 19 51  1  0  0  0  0
 20 21  1  0  0  0  0
 20 22  1  0  0  0  0
 20 52  1  0  0  0  0
 21 23  1  0  0  0  0
 21 53  1  0  0  0  0
 22 24  1  0  0  0  0
 22 54  1  0  0  0  0
 23 55  1  0  0  0  0
 24 30  1  0  0  0  0
 24 56  1  0  0  0  0
 25 31  1  0  0  0  0
 25 32  1  0  0  0  0
 26 29  1  0  0  0  0
 26 57  1  0  0  0  0
 26 58  1  0  0  0  0
 27 33  1  0  0  0  0
 27 34  1  0  0  0  0
 27 37  1  0  0  0  0
 28 59  1  0  0  0  0
 28 60  1  0  0  0  0
 29 35  1  0  0  0  0
 29 61  1  0  0  0  0
 29 62  1  0  0  0  0
 30 63  1  0  0  0  0
 30 64  1  0  0  0  0
 31 65  1  0  0  0  0
 31 66  1  0  0  0  0
 31 67  1  0  0  0  0
 32 68  1  0  0  0  0
 32 69  1  0  0  0  0
 32 70  1  0  0  0  0
 33 36  1  0  0  0  0
 33 71  1  0  0  0  0
 33 72  1  0  0  0  0
 34 76  1  0  0  0  0
 34 77  1  0  0  0  0
 34 78  1  0  0  0  0
 35 38  2  0  0  0  0
 35 42  1  0  0  0  0
 36 39  1  0  0  0  0
 36 82  1  0  0  0  0
 36 83  1  0  0  0  0
 37 44  2  0  0  0  0
 37 85  1  0  0  0  0
 38 40  1  0  0  0  0
 38 87  1  0  0  0  0
 39 43  2  0  0  0  0
 39 88  1  0  0  0  0
 40 41  1  0  0  0  0
 40 89  1  0  0  0  0
 40 90  1  0  0  0  0
 41 43  1  0  0  0  0
 41 91  1  0  0  0  0
 41 92  1  0  0  0  0
 42 93  1  0  0  0  0
 42 94  1  0  0  0  0
 42 95  1  0  0  0  0
 43 45  1  0  0  0  0
 44 97  1  0  0  0  0
 44 98  1  0  0  0  0
 45 99  1  0  0  0  0
 45100  1  0  0  0  0
 45101  1  0  0  0  0
M  END
> <PUBCHEM_COMPOUND_CID>
131752673

> <PUBCHEM_COMPOUND_CANONICALIZED>
1

> <PUBCHEM_CACTVS_COMPLEXITY>
971

> <PUBCHEM_CACTVS_HBOND_ACCEPTOR>
13

> <PUBCHEM_CACTVS_HBOND_DONOR>
9

> <PUBCHEM_CACTVS_ROTATABLE_BOND>
17

> <PUBCHEM_CACTVS_SUBSKEYS>
AAADcfB8PAAAAAAAAAAAAAAAAAAAAAAAAAAkSAAAAAAAAAAAAAAAGgAACAAADFSwgAMCCAAABgCAAiBCAAAAAAAgAAAICAAAAAgRFAIAIQAiQAAFgAAPIAPA4EwMAAAAAAAAAAAAAAAAAAAAAAAAAAAAAA==

> <PUBCHEM_IUPAC_OPENEYE_NAME>
2-(hydroxymethyl)-6-[(4E,8E)-1-(1-hydroxy-1-methyl-ethyl)-4,8,12-trimethyl-12-[3,4,5-trihydroxy-6-(hydroxymethyl)tetrahydropyran-2-yl]oxy-tetradeca-4,8,13-trienoxy]tetrahydropyran-3,4,5-triol

> <PUBCHEM_IUPAC_CAS_NAME>
2-(hydroxymethyl)-6-[(6E,10E)-2-hydroxy-2,6,10,14-tetramethyl-14-[[3,4,5-trihydroxy-6-(hydroxymethyl)-2-oxanyl]oxy]hexadeca-6,10,15-trien-3-yl]oxyoxane-3,4,5-triol

> <PUBCHEM_IUPAC_NAME_MARKUP>
2-(hydroxymethyl)-6-[(6<I>E</I>,10<I>E</I>)-2-hydroxy-2,6,10,14-tetramethyl-14-[3,4,5-trihydroxy-6-(hydroxymethyl)oxan-2-yl]oxyhexadeca-6,10,15-trien-3-yl]oxyoxane-3,4,5-triol

> <PUBCHEM_IUPAC_NAME>
2-(hydroxymethyl)-6-[(6E,10E)-2-hydroxy-2,6,10,14-tetramethyl-14-[3,4,5-trihydroxy-6-(hydroxymethyl)oxan-2-yl]oxyhexadeca-6,10,15-trien-3-yl]oxyoxane-3,4,5-triol

> <PUBCHEM_IUPAC_SYSTEMATIC_NAME>
2-(hydroxymethyl)-6-[(6E,10E)-14-[6-(hydroxymethyl)-3,4,5-tris(oxidanyl)oxan-2-yl]oxy-2,6,10,14-tetramethyl-2-oxidanyl-hexadeca-6,10,15-trien-3-yl]oxy-oxane-3,4,5-triol

> <PUBCHEM_IUPAC_TRADITIONAL_NAME>
2-[(4E,8E)-1-(1-hydroxy-1-methyl-ethyl)-4,8,12-trimethyl-12-(3,4,5-trihydroxy-6-methylol-tetrahydropyran-2-yl)oxy-tetradeca-4,8,13-trienoxy]-6-methylol-tetrahydropyran-3,4,5-triol

> <PUBCHEM_IUPAC_INCHI>
InChI=1S/C32H56O13/c1-7-32(6,45-30-28(40)26(38)24(36)21(17-34)43-30)15-9-12-18(2)10-8-11-19(3)13-14-22(31(4,5)41)44-29-27(39)25(37)23(35)20(16-33)42-29/h7,11-12,20-30,33-41H,1,8-10,13-17H2,2-6H3/b18-12+,19-11+

> <PUBCHEM_IUPAC_INCHIKEY>
OZHKUJVWCFTHRG-IDXRHMDNSA-N

> <PUBCHEM_XLOGP3_AA>
1

> <PUBCHEM_EXACT_MASS>
648.372092

> <PUBCHEM_MOLECULAR_FORMULA>
C32H56O13

> <PUBCHEM_MOLECULAR_WEIGHT>
648.8

> <PUBCHEM_OPENEYE_CAN_SMILES>
CC(=CCCC(C)(C=C)OC1C(C(C(C(O1)CO)O)O)O)CCC=C(C)CCC(C(C)(C)O)OC2C(C(C(C(O2)CO)O)O)O

> <PUBCHEM_OPENEYE_ISO_SMILES>
C/C(=C\CCC(C)(C=C)OC1C(C(C(C(O1)CO)O)O)O)/CC/C=C(\C)/CCC(C(C)(C)O)OC2C(C(C(C(O2)CO)O)O)O

> <PUBCHEM_CACTVS_TPSA>
219

> <PUBCHEM_MONOISOTOPIC_WEIGHT>
648.372092

> <PUBCHEM_TOTAL_CHARGE>
0

> <PUBCHEM_HEAVY_ATOM_COUNT>
45

> <PUBCHEM_ATOM_DEF_STEREO_COUNT>
0

> <PUBCHEM_ATOM_UDEF_STEREO_COUNT>
12

> <PUBCHEM_BOND_DEF_STEREO_COUNT>
2

> <PUBCHEM_BOND_UDEF_STEREO_COUNT>
0

> <PUBCHEM_ISOTOPIC_ATOM_COUNT>
0

> <PUBCHEM_COMPONENT_COUNT>
1

> <PUBCHEM_CACTVS_TAUTO_COUNT>
-1

> <PUBCHEM_COORDINATE_TYPE>
1
5
255

> <PUBCHEM_BONDANNOTATIONS>
22  10  3
18  28  3
19  26  3
16  2  3
24  30  3
27  34  3
23  4  3
14  5  3
15  6  3
17  7  3
20  8  3
21  9  3

$$$$
