100928038
  -OEChem-09042011472D

138141  0     1  0  0  0  0  0999 V2000
    6.0010   -6.0000    0.0000 O   0  0  0  0  0  0  0  0  0  0  0  0
    7.7331   -4.0000    0.0000 O   0  0  0  0  0  0  0  0  0  0  0  0
    5.1350   -4.5000    0.0000 O   0  0  0  0  0  0  0  0  0  0  0  0
    9.4651   -4.0000    0.0000 O   0  0  0  0  0  0  0  0  0  0  0  0
    7.7331   -7.0000    0.0000 O   0  0  0  0  0  0  0  0  0  0  0  0
    9.4651   -6.0000    0.0000 O   0  0  0  0  0  0  0  0  0  0  0  0
    4.2690   -7.0000    0.0000 O   0  0  0  0  0  0  0  0  0  0  0  0
    2.5369   -6.0000    0.0000 O   0  0  0  0  0  0  0  0  0  0  0  0
   17.2594    4.5000    0.0000 O   0  0  0  0  0  0  0  0  0  0  0  0
    2.5369   -4.0000    0.0000 O   0  0  0  0  0  0  0  0  0  0  0  0
   18.9914    2.5000    0.0000 O   0  0  0  0  0  0  0  0  0  0  0  0
   18.1254    1.0000    0.0000 O   0  0  0  0  0  0  0  0  0  0  0  0
    6.0010   -3.0000    0.0000 O   0  0  0  0  0  0  0  0  0  0  0  0
   19.8574    4.0000    0.0000 O   0  0  0  0  0  0  0  0  0  0  0  0
   16.3933    6.0000    0.0000 O   0  0  0  0  0  0  0  0  0  0  0  0
   19.8574    6.0000    0.0000 O   0  0  0  0  0  0  0  0  0  0  0  0
   18.1254    7.0000    0.0000 O   0  0  0  0  0  0  0  0  0  0  0  0
   20.7235    1.5000    0.0000 O   0  0  0  0  0  0  0  0  0  0  0  0
   20.7235   -0.5000    0.0000 O   0  0  0  0  0  0  0  0  0  0  0  0
   18.9914   -1.5000    0.0000 O   0  0  0  0  0  0  0  0  0  0  0  0
    6.8671   -5.5000    0.0000 C   0  0  1  0  0  0  0  0  0  0  0  0
    7.7331   -6.0000    0.0000 C   0  0  1  0  0  0  0  0  0  0  0  0
    6.8671   -4.5000    0.0000 C   0  0  1  0  0  0  0  0  0  0  0  0
    8.5991   -5.5000    0.0000 C   0  0  2  0  0  0  0  0  0  0  0  0
    8.5991   -4.5000    0.0000 C   0  0  1  0  0  0  0  0  0  0  0  0
    5.1350   -5.5000    0.0000 C   0  0  2  0  0  0  0  0  0  0  0  0
    4.2690   -6.0000    0.0000 C   0  0  1  0  0  0  0  0  0  0  0  0
    3.4030   -5.5000    0.0000 C   0  0  1  0  0  0  0  0  0  0  0  0
    3.4030   -4.5000    0.0000 C   0  0  2  0  0  0  0  0  0  0  0  0
    4.2690   -4.0000    0.0000 C   0  0  2  0  0  0  0  0  0  0  0  0
    6.0010   -4.0000    0.0000 C   0  0  0  0  0  0  0  0  0  0  0  0
    9.4651   -3.0000    0.0000 C   0  0  2  0  0  0  0  0  0  0  0  0
   18.1254    4.0000    0.0000 C   0  0  1  0  0  0  0  0  0  0  0  0
   18.9914    4.5000    0.0000 C   0  0  2  0  0  0  0  0  0  0  0  0
   18.9914    5.5000    0.0000 C   0  0  1  0  0  0  0  0  0  0  0  0
    4.2690   -3.0000    0.0000 C   0  0  0  0  0  0  0  0  0  0  0  0
   18.1254    6.0000    0.0000 C   0  0  2  0  0  0  0  0  0  0  0  0
   19.8574    1.0000    0.0000 C   0  0  1  0  0  0  0  0  0  0  0  0
   18.9914    1.5000    0.0000 C   0  0  2  0  0  0  0  0  0  0  0  0
   19.8574    0.0000    0.0000 C   0  0  1  0  0  0  0  0  0  0  0  0
    9.4651   -2.0000    0.0000 C   0  0  0  0  0  0  0  0  0  0  0  0
   18.9914   -0.5000    0.0000 C   0  0  2  0  0  0  0  0  0  0  0  0
   17.2594    5.5000    0.0000 C   0  0  1  0  0  0  0  0  0  0  0  0
   18.1254    3.0000    0.0000 C   0  0  0  0  0  0  0  0  0  0  0  0
   18.1254    0.0000    0.0000 C   0  0  2  0  0  0  0  0  0  0  0  0
    8.4651   -3.0000    0.0000 C   0  0  0  0  0  0  0  0  0  0  0  0
   10.4651   -3.0000    0.0000 C   0  0  0  0  0  0  0  0  0  0  0  0
   10.3312   -1.5000    0.0000 C   0  0  0  0  0  0  0  0  0  0  0  0
   17.2594   -0.5000    0.0000 C   0  0  0  0  0  0  0  0  0  0  0  0
   10.3312   -0.5000    0.0000 C   0  0  0  0  0  0  0  0  0  0  0  0
   15.5273    5.5000    0.0000 C   0  0  0  0  0  0  0  0  0  0  0  0
   10.9651   -3.8660    0.0000 C   0  0  0  0  0  0  0  0  0  0  0  0
   11.1972   -0.0000    0.0000 C   0  0  0  0  0  0  0  0  0  0  0  0
   14.6613    6.0000    0.0000 C   0  0  0  0  0  0  0  0  0  0  0  0
   11.1972    1.0000    0.0000 C   0  0  0  0  0  0  0  0  0  0  0  0
   12.0632   -0.5000    0.0000 C   0  0  0  0  0  0  0  0  0  0  0  0
   12.0632    1.5000    0.0000 C   0  0  0  0  0  0  0  0  0  0  0  0
   13.7953    5.5000    0.0000 C   0  0  0  0  0  0  0  0  0  0  0  0
   14.6613    7.0000    0.0000 C   0  0  0  0  0  0  0  0  0  0  0  0
   13.7953    4.5000    0.0000 C   0  0  0  0  0  0  0  0  0  0  0  0
   12.9292    4.0000    0.0000 C   0  0  0  0  0  0  0  0  0  0  0  0
   12.0632    2.5000    0.0000 C   0  0  0  0  0  0  0  0  0  0  0  0
   12.9292    3.0000    0.0000 C   0  0  0  0  0  0  0  0  0  0  0  0
   13.7953    2.5000    0.0000 C   0  0  0  0  0  0  0  0  0  0  0  0
    6.3301   -5.1900    0.0000 H   0  0  0  0  0  0  0  0  0  0  0  0
    7.1962   -6.3100    0.0000 H   0  0  0  0  0  0  0  0  0  0  0  0
    6.8671   -3.8800    0.0000 H   0  0  0  0  0  0  0  0  0  0  0  0
    8.5991   -6.1200    0.0000 H   0  0  0  0  0  0  0  0  0  0  0  0
    8.5991   -3.8800    0.0000 H   0  0  0  0  0  0  0  0  0  0  0  0
    5.1350   -6.1200    0.0000 H   0  0  0  0  0  0  0  0  0  0  0  0
    3.7320   -6.3100    0.0000 H   0  0  0  0  0  0  0  0  0  0  0  0
    2.8660   -5.1900    0.0000 H   0  0  0  0  0  0  0  0  0  0  0  0
    3.4030   -3.8800    0.0000 H   0  0  0  0  0  0  0  0  0  0  0  0
    4.8059   -3.6900    0.0000 H   0  0  0  0  0  0  0  0  0  0  0  0
    5.3905   -3.8923    0.0000 H   0  0  0  0  0  0  0  0  0  0  0  0
    5.7890   -4.5826    0.0000 H   0  0  0  0  0  0  0  0  0  0  0  0
   17.5885    3.6900    0.0000 H   0  0  0  0  0  0  0  0  0  0  0  0
   18.9914    3.8800    0.0000 H   0  0  0  0  0  0  0  0  0  0  0  0
   19.5284    5.1900    0.0000 H   0  0  0  0  0  0  0  0  0  0  0  0
    8.2700   -7.3100    0.0000 H   0  0  0  0  0  0  0  0  0  0  0  0
    4.8890   -3.0000    0.0000 H   0  0  0  0  0  0  0  0  0  0  0  0
    4.2690   -2.3800    0.0000 H   0  0  0  0  0  0  0  0  0  0  0  0
    3.6490   -3.0000    0.0000 H   0  0  0  0  0  0  0  0  0  0  0  0
   18.6623    6.3100    0.0000 H   0  0  0  0  0  0  0  0  0  0  0  0
   20.3944    0.6900    0.0000 H   0  0  0  0  0  0  0  0  0  0  0  0
   10.0021   -5.6900    0.0000 H   0  0  0  0  0  0  0  0  0  0  0  0
   19.5284    1.8100    0.0000 H   0  0  0  0  0  0  0  0  0  0  0  0
   19.8574   -0.6200    0.0000 H   0  0  0  0  0  0  0  0  0  0  0  0
   19.5284   -0.8100    0.0000 H   0  0  0  0  0  0  0  0  0  0  0  0
    9.2531   -1.4174    0.0000 H   0  0  0  0  0  0  0  0  0  0  0  0
    8.8546   -2.1077    0.0000 H   0  0  0  0  0  0  0  0  0  0  0  0
   16.7224    5.1900    0.0000 H   0  0  0  0  0  0  0  0  0  0  0  0
   17.5148    3.1077    0.0000 H   0  0  0  0  0  0  0  0  0  0  0  0
   17.9133    2.4174    0.0000 H   0  0  0  0  0  0  0  0  0  0  0  0
   17.5885    0.3100    0.0000 H   0  0  0  0  0  0  0  0  0  0  0  0
    3.7320   -7.3100    0.0000 H   0  0  0  0  0  0  0  0  0  0  0  0
    2.0000   -5.6900    0.0000 H   0  0  0  0  0  0  0  0  0  0  0  0
    8.4651   -2.3800    0.0000 H   0  0  0  0  0  0  0  0  0  0  0  0
    7.8451   -3.0000    0.0000 H   0  0  0  0  0  0  0  0  0  0  0  0
    8.4651   -3.6200    0.0000 H   0  0  0  0  0  0  0  0  0  0  0  0
    2.5369   -3.3800    0.0000 H   0  0  0  0  0  0  0  0  0  0  0  0
   10.7751   -2.4631    0.0000 H   0  0  0  0  0  0  0  0  0  0  0  0
   10.5432   -2.0826    0.0000 H   0  0  0  0  0  0  0  0  0  0  0  0
   10.9417   -1.3923    0.0000 H   0  0  0  0  0  0  0  0  0  0  0  0
    6.5380   -2.6900    0.0000 H   0  0  0  0  0  0  0  0  0  0  0  0
   16.9494    0.0369    0.0000 H   0  0  0  0  0  0  0  0  0  0  0  0
   16.7224   -0.8100    0.0000 H   0  0  0  0  0  0  0  0  0  0  0  0
   17.5694   -1.0369    0.0000 H   0  0  0  0  0  0  0  0  0  0  0  0
   20.3944    4.3100    0.0000 H   0  0  0  0  0  0  0  0  0  0  0  0
   20.3944    5.6900    0.0000 H   0  0  0  0  0  0  0  0  0  0  0  0
   18.6623    7.3100    0.0000 H   0  0  0  0  0  0  0  0  0  0  0  0
   21.2604    1.1900    0.0000 H   0  0  0  0  0  0  0  0  0  0  0  0
   20.7235   -1.1200    0.0000 H   0  0  0  0  0  0  0  0  0  0  0  0
   18.4545   -1.8100    0.0000 H   0  0  0  0  0  0  0  0  0  0  0  0
    9.7942   -0.1900    0.0000 H   0  0  0  0  0  0  0  0  0  0  0  0
   15.1288    5.0250    0.0000 H   0  0  0  0  0  0  0  0  0  0  0  0
   15.9258    5.0250    0.0000 H   0  0  0  0  0  0  0  0  0  0  0  0
   10.6551   -4.4030    0.0000 H   0  0  0  0  0  0  0  0  0  0  0  0
   11.5851   -3.8660    0.0000 H   0  0  0  0  0  0  0  0  0  0  0  0
   10.9851    1.5826    0.0000 H   0  0  0  0  0  0  0  0  0  0  0  0
   10.5866    0.8923    0.0000 H   0  0  0  0  0  0  0  0  0  0  0  0
   11.7532   -1.0369    0.0000 H   0  0  0  0  0  0  0  0  0  0  0  0
   12.6002   -0.8100    0.0000 H   0  0  0  0  0  0  0  0  0  0  0  0
   12.3732    0.0369    0.0000 H   0  0  0  0  0  0  0  0  0  0  0  0
   12.2753    0.9174    0.0000 H   0  0  0  0  0  0  0  0  0  0  0  0
   12.6738    1.6077    0.0000 H   0  0  0  0  0  0  0  0  0  0  0  0
   13.2583    5.8100    0.0000 H   0  0  0  0  0  0  0  0  0  0  0  0
   15.2813    7.0000    0.0000 H   0  0  0  0  0  0  0  0  0  0  0  0
   14.6613    7.6200    0.0000 H   0  0  0  0  0  0  0  0  0  0  0  0
   14.0413    7.0000    0.0000 H   0  0  0  0  0  0  0  0  0  0  0  0
   14.0073    3.9174    0.0000 H   0  0  0  0  0  0  0  0  0  0  0  0
   14.4058    4.6077    0.0000 H   0  0  0  0  0  0  0  0  0  0  0  0
   12.7172    4.5826    0.0000 H   0  0  0  0  0  0  0  0  0  0  0  0
   12.3187    3.8923    0.0000 H   0  0  0  0  0  0  0  0  0  0  0  0
   11.5263    2.8100    0.0000 H   0  0  0  0  0  0  0  0  0  0  0  0
   13.4853    1.9631    0.0000 H   0  0  0  0  0  0  0  0  0  0  0  0
   14.3322    2.1900    0.0000 H   0  0  0  0  0  0  0  0  0  0  0  0
   14.1053    3.0369    0.0000 H   0  0  0  0  0  0  0  0  0  0  0  0
 21  1  1  6  0  0  0
 26  1  1  1  0  0  0
  2 23  1  0  0  0  0
  2 25  1  0  0  0  0
  3 26  1  0  0  0  0
  3 30  1  0  0  0  0
 25  4  1  1  0  0  0
 32  4  1  1  0  0  0
 22  5  1  1  0  0  0
  5 80  1  0  0  0  0
 24  6  1  6  0  0  0
  6 86  1  0  0  0  0
 27  7  1  6  0  0  0
  7 96  1  0  0  0  0
 28  8  1  6  0  0  0
  8 97  1  0  0  0  0
  9 33  1  0  0  0  0
  9 43  1  0  0  0  0
 29 10  1  1  0  0  0
 10101  1  0  0  0  0
 39 11  1  1  0  0  0
 11 44  1  0  0  0  0
 12 39  1  0  0  0  0
 12 45  1  0  0  0  0
 13 31  1  0  0  0  0
 13105  1  0  0  0  0
 34 14  1  6  0  0  0
 14109  1  0  0  0  0
 43 15  1  1  0  0  0
 15 51  1  0  0  0  0
 35 16  1  1  0  0  0
 16110  1  0  0  0  0
 37 17  1  6  0  0  0
 17111  1  0  0  0  0
 38 18  1  6  0  0  0
 18112  1  0  0  0  0
 40 19  1  6  0  0  0
 19113  1  0  0  0  0
 42 20  1  1  0  0  0
 20114  1  0  0  0  0
 21 22  1  0  0  0  0
 21 23  1  0  0  0  0
 21 65  1  0  0  0  0
 22 24  1  0  0  0  0
 22 66  1  0  0  0  0
 23 31  1  1  0  0  0
 23 67  1  0  0  0  0
 24 25  1  0  0  0  0
 24 68  1  0  0  0  0
 25 69  1  0  0  0  0
 26 27  1  0  0  0  0
 26 70  1  0  0  0  0
 27 28  1  0  0  0  0
 27 71  1  0  0  0  0
 28 29  1  0  0  0  0
 28 72  1  0  0  0  0
 29 30  1  0  0  0  0
 29 73  1  0  0  0  0
 30 36  1  6  0  0  0
 30 74  1  0  0  0  0
 31 75  1  0  0  0  0
 31 76  1  0  0  0  0
 32 41  1  0  0  0  0
 32 46  1  0  0  0  0
 32 47  1  0  0  0  0
 33 34  1  0  0  0  0
 33 44  1  1  0  0  0
 33 77  1  0  0  0  0
 34 35  1  0  0  0  0
 34 78  1  0  0  0  0
 35 37  1  0  0  0  0
 35 79  1  0  0  0  0
 36 81  1  0  0  0  0
 36 82  1  0  0  0  0
 36 83  1  0  0  0  0
 37 43  1  0  0  0  0
 37 84  1  0  0  0  0
 38 39  1  0  0  0  0
 38 40  1  0  0  0  0
 38 85  1  0  0  0  0
 39 87  1  0  0  0  0
 40 42  1  0  0  0  0
 40 88  1  0  0  0  0
 41 48  1  0  0  0  0
 41 90  1  0  0  0  0
 41 91  1  0  0  0  0
 42 45  1  0  0  0  0
 42 89  1  0  0  0  0
 43 92  1  0  0  0  0
 44 93  1  0  0  0  0
 44 94  1  0  0  0  0
 45 49  1  6  0  0  0
 45 95  1  0  0  0  0
 46 98  1  0  0  0  0
 46 99  1  0  0  0  0
 46100  1  0  0  0  0
 47 52  2  0  0  0  0
 47102  1  0  0  0  0
 48 50  1  0  0  0  0
 48103  1  0  0  0  0
 48104  1  0  0  0  0
 49106  1  0  0  0  0
 49107  1  0  0  0  0
 49108  1  0  0  0  0
 50 53  2  0  0  0  0
 50115  1  0  0  0  0
 51 54  1  0  0  0  0
 51116  1  0  0  0  0
 51117  1  0  0  0  0
 52118  1  0  0  0  0
 52119  1  0  0  0  0
 53 55  1  0  0  0  0
 53 56  1  0  0  0  0
 54 58  2  0  0  0  0
 54 59  1  0  0  0  0
 55 57  1  0  0  0  0
 55120  1  0  0  0  0
 55121  1  0  0  0  0
 56122  1  0  0  0  0
 56123  1  0  0  0  0
 56124  1  0  0  0  0
 57 62  1  0  0  0  0
 57125  1  0  0  0  0
 57126  1  0  0  0  0
 58 60  1  0  0  0  0
 58127  1  0  0  0  0
 59128  1  0  0  0  0
 59129  1  0  0  0  0
 59130  1  0  0  0  0
 60 61  1  0  0  0  0
 60131  1  0  0  0  0
 60132  1  0  0  0  0
 61 63  1  0  0  0  0
 61133  1  0  0  0  0
 61134  1  0  0  0  0
 62 63  2  0  0  0  0
 62135  1  0  0  0  0
 63 64  1  0  0  0  0
 64136  1  0  0  0  0
 64137  1  0  0  0  0
 64138  1  0  0  0  0
M  END
> <PUBCHEM_COMPOUND_CID>
100928038

> <PUBCHEM_COMPOUND_CANONICALIZED>
1

> <PUBCHEM_CACTVS_COMPLEXITY>
1530

> <PUBCHEM_CACTVS_HBOND_ACCEPTOR>
20

> <PUBCHEM_CACTVS_HBOND_DONOR>
12

> <PUBCHEM_CACTVS_ROTATABLE_BOND>
21

> <PUBCHEM_CACTVS_SUBSKEYS>
AAADcfB8PgAAAAAAAAAAAAAAAAAAAAAAAAAkSJEgAAAAAAAAAAAAGgAACAAADFSwgAMCCAAABgCAAiBCAAAAAAAgAAAICAAAAAgRFAIAIQAiUAAFgAAPIAPAYAwMAAAAAAAAAAAAAAAAAAAAAAAAAAAAAA==

> <PUBCHEM_IUPAC_OPENEYE_NAME>
(2R,3R,4R,5R,6S)-2-[[(2R,3S,4S,5R,6R)-6-[(2Z,6E,10E,14S)-14-[(2S,3R,4R,5S,6R)-3,4-dihydroxy-6-(hydroxymethyl)-5-[(2S,3R,4R,5R,6S)-3,4,5-trihydroxy-6-methyl-tetrahydropyran-2-yl]oxy-tetrahydropyran-2-yl]oxy-2,6,10,14-tetramethyl-hexadeca-2,6,10,15-tetraenoxy]-3,4,5-trihydroxy-tetrahydropyran-2-yl]methoxy]-6-methyl-tetrahydropyran-3,4,5-triol

> <PUBCHEM_IUPAC_CAS_NAME>
(2R,3R,4R,5R,6S)-2-[[(2R,3S,4S,5R,6R)-6-[(2Z,6E,10E,14S)-14-[[(2S,3R,4R,5S,6R)-3,4-dihydroxy-6-(hydroxymethyl)-5-[[(2S,3R,4R,5R,6S)-3,4,5-trihydroxy-6-methyl-2-oxanyl]oxy]-2-oxanyl]oxy]-2,6,10,14-tetramethylhexadeca-2,6,10,15-tetraenoxy]-3,4,5-trihydroxy-2-oxanyl]methoxy]-6-methyloxane-3,4,5-triol

> <PUBCHEM_IUPAC_NAME_MARKUP>
(2<I>R</I>,3<I>R</I>,4<I>R</I>,5<I>R</I>,6<I>S</I>)-2-[[(2<I>R</I>,3<I>S</I>,4<I>S</I>,5<I>R</I>,6<I>R</I>)-6-[(2<I>Z</I>,6<I>E</I>,10<I>E</I>,14<I>S</I>)-14-[(2<I>S</I>,3<I>R</I>,4<I>R</I>,5<I>S</I>,6<I>R</I>)-3,4-dihydroxy-6-(hydroxymethyl)-5-[(2<I>S</I>,3<I>R</I>,4<I>R</I>,5<I>R</I>,6<I>S</I>)-3,4,5-trihydroxy-6-methyloxan-2-yl]oxyoxan-2-yl]oxy-2,6,10,14-tetramethylhexadeca-2,6,10,15-tetraenoxy]-3,4,5-trihydroxyoxan-2-yl]methoxy]-6-methyloxane-3,4,5-triol

> <PUBCHEM_IUPAC_NAME>
(2R,3R,4R,5R,6S)-2-[[(2R,3S,4S,5R,6R)-6-[(2Z,6E,10E,14S)-14-[(2S,3R,4R,5S,6R)-3,4-dihydroxy-6-(hydroxymethyl)-5-[(2S,3R,4R,5R,6S)-3,4,5-trihydroxy-6-methyloxan-2-yl]oxyoxan-2-yl]oxy-2,6,10,14-tetramethylhexadeca-2,6,10,15-tetraenoxy]-3,4,5-trihydroxyoxan-2-yl]methoxy]-6-methyloxane-3,4,5-triol

> <PUBCHEM_IUPAC_SYSTEMATIC_NAME>
(2R,3R,4R,5R,6S)-2-[[(2R,3S,4S,5R,6R)-6-[(2Z,6E,10E,14S)-14-[(2S,3R,4R,5S,6R)-6-(hydroxymethyl)-5-[(2S,3R,4R,5R,6S)-6-methyl-3,4,5-tris(oxidanyl)oxan-2-yl]oxy-3,4-bis(oxidanyl)oxan-2-yl]oxy-2,6,10,14-tetramethyl-hexadeca-2,6,10,15-tetraenoxy]-3,4,5-tris(oxidanyl)oxan-2-yl]methoxy]-6-methyl-oxane-3,4,5-triol

> <PUBCHEM_IUPAC_TRADITIONAL_NAME>
(2R,3R,4R,5R,6S)-2-[[(2R,3S,4S,5R,6R)-6-[(2Z,6E,10E,14S)-14-[(2S,3R,4R,5S,6R)-3,4-dihydroxy-6-methylol-5-[(2S,3R,4R,5R,6S)-3,4,5-trihydroxy-6-methyl-tetrahydropyran-2-yl]oxy-tetrahydropyran-2-yl]oxy-2,6,10,14-tetramethyl-hexadeca-2,6,10,15-tetraenoxy]-3,4,5-trihydroxy-tetrahydropyran-2-yl]methoxy]-6-methyl-tetrahydropyran-3,4,5-triol

> <PUBCHEM_IUPAC_INCHI>
InChI=1S/C44H74O20/c1-8-44(7,64-43-38(56)34(52)39(26(18-45)61-43)63-42-37(55)32(50)29(47)25(6)60-42)17-11-16-22(3)13-9-12-21(2)14-10-15-23(4)19-57-41-36(54)33(51)30(48)27(62-41)20-58-40-35(53)31(49)28(46)24(5)59-40/h8,12,15-16,24-43,45-56H,1,9-11,13-14,17-20H2,2-7H3/b21-12+,22-16+,23-15-/t24-,25-,26+,27+,28-,29-,30+,31+,32+,33-,34+,35+,36+,37+,38+,39+,40+,41+,42-,43-,44+/m0/s1

> <PUBCHEM_IUPAC_INCHIKEY>
VWZHZYXUGKPPIX-VBWVXKAUSA-N

> <PUBCHEM_XLOGP3_AA>
-1.3

> <PUBCHEM_EXACT_MASS>
922.477345

> <PUBCHEM_MOLECULAR_FORMULA>
C44H74O20

> <PUBCHEM_MOLECULAR_WEIGHT>
923

> <PUBCHEM_OPENEYE_CAN_SMILES>
CC1C(C(C(C(O1)OCC2C(C(C(C(O2)OCC(=CCCC(=CCCC(=CCCC(C)(C=C)OC3C(C(C(C(O3)CO)OC4C(C(C(C(O4)C)O)O)O)O)O)C)C)C)O)O)O)O)O)O

> <PUBCHEM_OPENEYE_ISO_SMILES>
C[C@H]1[C@@H]([C@H]([C@H]([C@@H](O1)OC[C@@H]2[C@H]([C@@H]([C@H]([C@@H](O2)OC/C(=C\CC/C(=C/CC/C(=C/CC[C@@](C)(C=C)O[C@H]3[C@@H]([C@H]([C@@H]([C@H](O3)CO)O[C@H]4[C@@H]([C@@H]([C@H]([C@@H](O4)C)O)O)O)O)O)/C)/C)/C)O)O)O)O)O)O

> <PUBCHEM_CACTVS_TPSA>
317

> <PUBCHEM_MONOISOTOPIC_WEIGHT>
922.477345

> <PUBCHEM_TOTAL_CHARGE>
0

> <PUBCHEM_HEAVY_ATOM_COUNT>
64

> <PUBCHEM_ATOM_DEF_STEREO_COUNT>
21

> <PUBCHEM_ATOM_UDEF_STEREO_COUNT>
0

> <PUBCHEM_BOND_DEF_STEREO_COUNT>
3

> <PUBCHEM_BOND_UDEF_STEREO_COUNT>
0

> <PUBCHEM_ISOTOPIC_ATOM_COUNT>
0

> <PUBCHEM_COMPONENT_COUNT>
1

> <PUBCHEM_CACTVS_TAUTO_COUNT>
-1

> <PUBCHEM_COORDINATE_TYPE>
1
5
255

> <PUBCHEM_BONDANNOTATIONS>
21  1  6
26  1  5
29  10  5
39  11  5
34  14  6
43  15  5
35  16  5
37  17  6
38  18  6
40  19  6
42  20  5
23  31  5
30  36  6
33  44  5
25  4  5
32  4  5
45  49  6
22  5  5
24  6  6
27  7  6
28  8  6

$$$$
