10326675
  -OEChem-09042010542D

 98 99  0     1  0  0  0  0  0999 V2000
    4.2690   -4.0000    0.0000 O   0  0  0  0  0  0  0  0  0  0  0  0
    6.0010   -4.0000    0.0000 O   0  0  0  0  0  0  0  0  0  0  0  0
   13.7953    4.5000    0.0000 O   0  0  0  0  0  0  0  0  0  0  0  0
    4.2690   -7.0000    0.0000 O   0  0  0  0  0  0  0  0  0  0  0  0
    6.0010   -6.0000    0.0000 O   0  0  0  0  0  0  0  0  0  0  0  0
    2.5369   -6.0000    0.0000 O   0  0  0  0  0  0  0  0  0  0  0  0
   12.9292    6.0000    0.0000 O   0  0  0  0  0  0  0  0  0  0  0  0
   16.3933    6.0000    0.0000 O   0  0  0  0  0  0  0  0  0  0  0  0
   16.3933    4.0000    0.0000 O   0  0  0  0  0  0  0  0  0  0  0  0
   14.6613    7.0000    0.0000 O   0  0  0  0  0  0  0  0  0  0  0  0
    2.5369   -3.0000    0.0000 O   0  0  0  0  0  0  0  0  0  0  0  0
   15.5273    2.5000    0.0000 O   0  0  0  0  0  0  0  0  0  0  0  0
    4.2690   -6.0000    0.0000 C   0  0  2  0  0  0  0  0  0  0  0  0
    5.1350   -5.5000    0.0000 C   0  0  2  0  0  0  0  0  0  0  0  0
    3.4030   -5.5000    0.0000 C   0  0  1  0  0  0  0  0  0  0  0  0
    5.1350   -4.5000    0.0000 C   0  0  1  0  0  0  0  0  0  0  0  0
    3.4030   -4.5000    0.0000 C   0  0  1  0  0  0  0  0  0  0  0  0
    6.0010   -3.0000    0.0000 C   0  0  2  0  0  0  0  0  0  0  0  0
   15.5273    5.5000    0.0000 C   0  0  1  0  0  0  0  0  0  0  0  0
   15.5273    4.5000    0.0000 C   0  0  1  0  0  0  0  0  0  0  0  0
   14.6613    6.0000    0.0000 C   0  0  2  0  0  0  0  0  0  0  0  0
   14.6613    4.0000    0.0000 C   0  0  1  0  0  0  0  0  0  0  0  0
   13.7953    5.5000    0.0000 C   0  0  1  0  0  0  0  0  0  0  0  0
    2.5369   -4.0000    0.0000 C   0  0  0  0  0  0  0  0  0  0  0  0
    6.0010   -2.0000    0.0000 C   0  0  0  0  0  0  0  0  0  0  0  0
    5.0010   -3.0000    0.0000 C   0  0  0  0  0  0  0  0  0  0  0  0
   14.6613    3.0000    0.0000 C   0  0  0  0  0  0  0  0  0  0  0  0
    6.8671   -1.5000    0.0000 C   0  0  0  0  0  0  0  0  0  0  0  0
    7.0010   -3.0000    0.0000 C   0  0  0  0  0  0  0  0  0  0  0  0
    6.8671   -0.5000    0.0000 C   0  0  0  0  0  0  0  0  0  0  0  0
   12.0632    5.5000    0.0000 C   0  0  0  0  0  0  0  0  0  0  0  0
    7.5010   -3.8660    0.0000 C   0  0  0  0  0  0  0  0  0  0  0  0
    7.7331   -0.0000    0.0000 C   0  0  0  0  0  0  0  0  0  0  0  0
   11.1972    6.0000    0.0000 C   0  0  0  0  0  0  0  0  0  0  0  0
    7.7331    1.0000    0.0000 C   0  0  0  0  0  0  0  0  0  0  0  0
    8.5991    1.5000    0.0000 C   0  0  0  0  0  0  0  0  0  0  0  0
   10.3312    5.5000    0.0000 C   0  0  0  0  0  0  0  0  0  0  0  0
    8.5991   -0.5000    0.0000 C   0  0  0  0  0  0  0  0  0  0  0  0
   10.3312    4.5000    0.0000 C   0  0  0  0  0  0  0  0  0  0  0  0
   11.1972    7.0000    0.0000 C   0  0  0  0  0  0  0  0  0  0  0  0
    9.4651    4.0000    0.0000 C   0  0  0  0  0  0  0  0  0  0  0  0
    9.4651    3.0000    0.0000 C   0  0  0  0  0  0  0  0  0  0  0  0
    8.5991    2.5000    0.0000 C   0  0  0  0  0  0  0  0  0  0  0  0
   10.3312    2.5000    0.0000 C   0  0  0  0  0  0  0  0  0  0  0  0
    3.7320   -6.3100    0.0000 H   0  0  0  0  0  0  0  0  0  0  0  0
    5.1350   -6.1200    0.0000 H   0  0  0  0  0  0  0  0  0  0  0  0
    3.4030   -6.1200    0.0000 H   0  0  0  0  0  0  0  0  0  0  0  0
    5.1350   -3.8800    0.0000 H   0  0  0  0  0  0  0  0  0  0  0  0
    3.4030   -3.8800    0.0000 H   0  0  0  0  0  0  0  0  0  0  0  0
   16.0643    5.1900    0.0000 H   0  0  0  0  0  0  0  0  0  0  0  0
   15.5273    3.8800    0.0000 H   0  0  0  0  0  0  0  0  0  0  0  0
   15.1982    6.3100    0.0000 H   0  0  0  0  0  0  0  0  0  0  0  0
   14.1244    3.6900    0.0000 H   0  0  0  0  0  0  0  0  0  0  0  0
   13.7953    6.1200    0.0000 H   0  0  0  0  0  0  0  0  0  0  0  0
    1.9264   -3.8923    0.0000 H   0  0  0  0  0  0  0  0  0  0  0  0
    2.3249   -4.5826    0.0000 H   0  0  0  0  0  0  0  0  0  0  0  0
    5.7890   -1.4174    0.0000 H   0  0  0  0  0  0  0  0  0  0  0  0
    5.3905   -2.1077    0.0000 H   0  0  0  0  0  0  0  0  0  0  0  0
    5.0010   -2.3800    0.0000 H   0  0  0  0  0  0  0  0  0  0  0  0
    4.3810   -3.0000    0.0000 H   0  0  0  0  0  0  0  0  0  0  0  0
    5.0010   -3.6200    0.0000 H   0  0  0  0  0  0  0  0  0  0  0  0
    3.7320   -7.3100    0.0000 H   0  0  0  0  0  0  0  0  0  0  0  0
   14.0507    3.1077    0.0000 H   0  0  0  0  0  0  0  0  0  0  0  0
   14.4492    2.4174    0.0000 H   0  0  0  0  0  0  0  0  0  0  0  0
    6.0010   -6.6200    0.0000 H   0  0  0  0  0  0  0  0  0  0  0  0
    2.0000   -5.6900    0.0000 H   0  0  0  0  0  0  0  0  0  0  0  0
    7.0791   -2.0826    0.0000 H   0  0  0  0  0  0  0  0  0  0  0  0
    7.4776   -1.3923    0.0000 H   0  0  0  0  0  0  0  0  0  0  0  0
    7.3110   -2.4631    0.0000 H   0  0  0  0  0  0  0  0  0  0  0  0
   16.9303    5.6900    0.0000 H   0  0  0  0  0  0  0  0  0  0  0  0
   16.9303    4.3100    0.0000 H   0  0  0  0  0  0  0  0  0  0  0  0
   15.1982    7.3100    0.0000 H   0  0  0  0  0  0  0  0  0  0  0  0
    2.0000   -2.6900    0.0000 H   0  0  0  0  0  0  0  0  0  0  0  0
    6.3301   -0.1900    0.0000 H   0  0  0  0  0  0  0  0  0  0  0  0
   11.6647    5.0250    0.0000 H   0  0  0  0  0  0  0  0  0  0  0  0
   12.4617    5.0250    0.0000 H   0  0  0  0  0  0  0  0  0  0  0  0
    7.1910   -4.4030    0.0000 H   0  0  0  0  0  0  0  0  0  0  0  0
    8.1210   -3.8660    0.0000 H   0  0  0  0  0  0  0  0  0  0  0  0
   15.5273    1.8800    0.0000 H   0  0  0  0  0  0  0  0  0  0  0  0
    7.5210    1.5826    0.0000 H   0  0  0  0  0  0  0  0  0  0  0  0
    7.1225    0.8923    0.0000 H   0  0  0  0  0  0  0  0  0  0  0  0
    8.8112    0.9174    0.0000 H   0  0  0  0  0  0  0  0  0  0  0  0
    9.2097    1.6077    0.0000 H   0  0  0  0  0  0  0  0  0  0  0  0
    9.7942    5.8100    0.0000 H   0  0  0  0  0  0  0  0  0  0  0  0
    8.2891   -1.0369    0.0000 H   0  0  0  0  0  0  0  0  0  0  0  0
    9.1360   -0.8100    0.0000 H   0  0  0  0  0  0  0  0  0  0  0  0
    8.9091    0.0369    0.0000 H   0  0  0  0  0  0  0  0  0  0  0  0
   10.5432    3.9174    0.0000 H   0  0  0  0  0  0  0  0  0  0  0  0
   10.9417    4.6077    0.0000 H   0  0  0  0  0  0  0  0  0  0  0  0
   11.8172    7.0000    0.0000 H   0  0  0  0  0  0  0  0  0  0  0  0
   11.1972    7.6200    0.0000 H   0  0  0  0  0  0  0  0  0  0  0  0
   10.5772    7.0000    0.0000 H   0  0  0  0  0  0  0  0  0  0  0  0
    9.2531    4.5826    0.0000 H   0  0  0  0  0  0  0  0  0  0  0  0
    8.8546    3.8923    0.0000 H   0  0  0  0  0  0  0  0  0  0  0  0
    8.0622    2.8100    0.0000 H   0  0  0  0  0  0  0  0  0  0  0  0
   10.0212    1.9631    0.0000 H   0  0  0  0  0  0  0  0  0  0  0  0
   10.8681    2.1900    0.0000 H   0  0  0  0  0  0  0  0  0  0  0  0
   10.6412    3.0369    0.0000 H   0  0  0  0  0  0  0  0  0  0  0  0
  1 16  1  0  0  0  0
  1 17  1  0  0  0  0
 16  2  1  1  0  0  0
 18  2  1  1  0  0  0
  3 22  1  0  0  0  0
  3 23  1  0  0  0  0
 13  4  1  1  0  0  0
  4 62  1  0  0  0  0
 14  5  1  6  0  0  0
  5 65  1  0  0  0  0
 15  6  1  6  0  0  0
  6 66  1  0  0  0  0
 23  7  1  1  0  0  0
  7 31  1  0  0  0  0
 19  8  1  1  0  0  0
  8 70  1  0  0  0  0
 20  9  1  6  0  0  0
  9 71  1  0  0  0  0
 21 10  1  6  0  0  0
 10 72  1  0  0  0  0
 11 24  1  0  0  0  0
 11 73  1  0  0  0  0
 12 27  1  0  0  0  0
 12 79  1  0  0  0  0
 13 14  1  0  0  0  0
 13 15  1  0  0  0  0
 13 45  1  0  0  0  0
 14 16  1  0  0  0  0
 14 46  1  0  0  0  0
 15 17  1  0  0  0  0
 15 47  1  0  0  0  0
 16 48  1  0  0  0  0
 17 24  1  1  0  0  0
 17 49  1  0  0  0  0
 18 25  1  0  0  0  0
 18 26  1  0  0  0  0
 18 29  1  0  0  0  0
 19 20  1  0  0  0  0
 19 21  1  0  0  0  0
 19 50  1  0  0  0  0
 20 22  1  0  0  0  0
 20 51  1  0  0  0  0
 21 23  1  0  0  0  0
 21 52  1  0  0  0  0
 22 27  1  1  0  0  0
 22 53  1  0  0  0  0
 23 54  1  0  0  0  0
 24 55  1  0  0  0  0
 24 56  1  0  0  0  0
 25 28  1  0  0  0  0
 25 57  1  0  0  0  0
 25 58  1  0  0  0  0
 26 59  1  0  0  0  0
 26 60  1  0  0  0  0
 26 61  1  0  0  0  0
 27 63  1  0  0  0  0
 27 64  1  0  0  0  0
 28 30  1  0  0  0  0
 28 67  1  0  0  0  0
 28 68  1  0  0  0  0
 29 32  2  0  0  0  0
 29 69  1  0  0  0  0
 30 33  2  0  0  0  0
 30 74  1  0  0  0  0
 31 34  1  0  0  0  0
 31 75  1  0  0  0  0
 31 76  1  0  0  0  0
 32 77  1  0  0  0  0
 32 78  1  0  0  0  0
 33 35  1  0  0  0  0
 33 38  1  0  0  0  0
 34 37  2  0  0  0  0
 34 40  1  0  0  0  0
 35 36  1  0  0  0  0
 35 80  1  0  0  0  0
 35 81  1  0  0  0  0
 36 43  1  0  0  0  0
 36 82  1  0  0  0  0
 36 83  1  0  0  0  0
 37 39  1  0  0  0  0
 37 84  1  0  0  0  0
 38 85  1  0  0  0  0
 38 86  1  0  0  0  0
 38 87  1  0  0  0  0
 39 41  1  0  0  0  0
 39 88  1  0  0  0  0
 39 89  1  0  0  0  0
 40 90  1  0  0  0  0
 40 91  1  0  0  0  0
 40 92  1  0  0  0  0
 41 42  1  0  0  0  0
 41 93  1  0  0  0  0
 41 94  1  0  0  0  0
 42 43  2  0  0  0  0
 42 44  1  0  0  0  0
 43 95  1  0  0  0  0
 44 96  1  0  0  0  0
 44 97  1  0  0  0  0
 44 98  1  0  0  0  0
M  END
> <PUBCHEM_COMPOUND_CID>
10326675

> <PUBCHEM_COMPOUND_CANONICALIZED>
1

> <PUBCHEM_CACTVS_COMPLEXITY>
967

> <PUBCHEM_CACTVS_HBOND_ACCEPTOR>
12

> <PUBCHEM_CACTVS_HBOND_DONOR>
8

> <PUBCHEM_CACTVS_ROTATABLE_BOND>
17

> <PUBCHEM_CACTVS_SUBSKEYS>
AAADcfB8PAAAAAAAAAAAAAAAAAAAAAAAAAAkSAAAAAAAAAAAAAAAGgAACAAADFSwgAMCCAAABgCAAiBCAAAAAAAgAAAICAAAAAgRFAIAIQAiUAAFgAAPIAPAYAwMAAAAAAAAAAAAAAAAAAAAAAAAAAAAAA==

> <PUBCHEM_IUPAC_OPENEYE_NAME>
(2R,3S,4S,5R,6R)-2-(hydroxymethyl)-6-[(2Z,6E,10E,14S)-2,6,10,14-tetramethyl-14-[(2S,3R,4S,5S,6R)-3,4,5-trihydroxy-6-(hydroxymethyl)tetrahydropyran-2-yl]oxy-hexadeca-2,6,10,15-tetraenoxy]tetrahydropyran-3,4,5-triol

> <PUBCHEM_IUPAC_CAS_NAME>
(2R,3S,4S,5R,6R)-2-(hydroxymethyl)-6-[(2Z,6E,10E,14S)-2,6,10,14-tetramethyl-14-[[(2S,3R,4S,5S,6R)-3,4,5-trihydroxy-6-(hydroxymethyl)-2-oxanyl]oxy]hexadeca-2,6,10,15-tetraenoxy]oxane-3,4,5-triol

> <PUBCHEM_IUPAC_NAME_MARKUP>
(2<I>R</I>,3<I>S</I>,4<I>S</I>,5<I>R</I>,6<I>R</I>)-2-(hydroxymethyl)-6-[(2<I>Z</I>,6<I>E</I>,10<I>E</I>,14<I>S</I>)-2,6,10,14-tetramethyl-14-[(2<I>S</I>,3<I>R</I>,4<I>S</I>,5<I>S</I>,6<I>R</I>)-3,4,5-trihydroxy-6-(hydroxymethyl)oxan-2-yl]oxyhexadeca-2,6,10,15-tetraenoxy]oxane-3,4,5-triol

> <PUBCHEM_IUPAC_NAME>
(2R,3S,4S,5R,6R)-2-(hydroxymethyl)-6-[(2Z,6E,10E,14S)-2,6,10,14-tetramethyl-14-[(2S,3R,4S,5S,6R)-3,4,5-trihydroxy-6-(hydroxymethyl)oxan-2-yl]oxyhexadeca-2,6,10,15-tetraenoxy]oxane-3,4,5-triol

> <PUBCHEM_IUPAC_SYSTEMATIC_NAME>
(2R,3S,4S,5R,6R)-2-(hydroxymethyl)-6-[(2Z,6E,10E,14S)-14-[(2S,3R,4S,5S,6R)-6-(hydroxymethyl)-3,4,5-tris(oxidanyl)oxan-2-yl]oxy-2,6,10,14-tetramethyl-hexadeca-2,6,10,15-tetraenoxy]oxane-3,4,5-triol

> <PUBCHEM_IUPAC_TRADITIONAL_NAME>
(2R,3S,4S,5R,6R)-2-methylol-6-[(2Z,6E,10E,14S)-2,6,10,14-tetramethyl-14-[(2S,3R,4S,5S,6R)-3,4,5-trihydroxy-6-methylol-tetrahydropyran-2-yl]oxy-hexadeca-2,6,10,15-tetraenoxy]tetrahydropyran-3,4,5-triol

> <PUBCHEM_IUPAC_INCHI>
InChI=1S/C32H54O12/c1-6-32(5,44-31-29(40)27(38)25(36)23(17-34)43-31)15-9-14-20(3)11-7-10-19(2)12-8-13-21(4)18-41-30-28(39)26(37)24(35)22(16-33)42-30/h6,10,13-14,22-31,33-40H,1,7-9,11-12,15-18H2,2-5H3/b19-10+,20-14+,21-13-/t22-,23-,24-,25-,26+,27+,28-,29-,30-,31+,32-/m1/s1

> <PUBCHEM_IUPAC_INCHIKEY>
HQUVEBJUUSKUCJ-VLUPPCEVSA-N

> <PUBCHEM_XLOGP3_AA>
2

> <PUBCHEM_EXACT_MASS>
630.361527

> <PUBCHEM_MOLECULAR_FORMULA>
C32H54O12

> <PUBCHEM_MOLECULAR_WEIGHT>
630.8

> <PUBCHEM_OPENEYE_CAN_SMILES>
CC(=CCCC(=CCCC(C)(C=C)OC1C(C(C(C(O1)CO)O)O)O)C)CCC=C(C)COC2C(C(C(C(O2)CO)O)O)O

> <PUBCHEM_OPENEYE_ISO_SMILES>
C/C(=C\CC/C(=C/CC[C@@](C)(C=C)O[C@H]1[C@@H]([C@H]([C@@H]([C@H](O1)CO)O)O)O)/C)/CC/C=C(/C)\CO[C@H]2[C@@H]([C@H]([C@@H]([C@H](O2)CO)O)O)O

> <PUBCHEM_CACTVS_TPSA>
199

> <PUBCHEM_MONOISOTOPIC_WEIGHT>
630.361527

> <PUBCHEM_TOTAL_CHARGE>
0

> <PUBCHEM_HEAVY_ATOM_COUNT>
44

> <PUBCHEM_ATOM_DEF_STEREO_COUNT>
11

> <PUBCHEM_ATOM_UDEF_STEREO_COUNT>
0

> <PUBCHEM_BOND_DEF_STEREO_COUNT>
3

> <PUBCHEM_BOND_UDEF_STEREO_COUNT>
0

> <PUBCHEM_ISOTOPIC_ATOM_COUNT>
0

> <PUBCHEM_COMPONENT_COUNT>
1

> <PUBCHEM_CACTVS_TAUTO_COUNT>
-1

> <PUBCHEM_COORDINATE_TYPE>
1
5
255

> <PUBCHEM_BONDANNOTATIONS>
21  10  6
17  24  5
16  2  5
18  2  5
22  27  5
13  4  5
14  5  6
15  6  6
23  7  5
19  8  5
20  9  6

$$$$
