122218206
  -OEChem-09042011222D

 81 84  0     0  0  0  0  0  0999 V2000
    7.1962    1.5950    0.0000 O   0  0  0  0  0  0  0  0  0  0  0  0
    4.5981   -3.9050    0.0000 O   0  0  0  0  0  0  0  0  0  0  0  0
   10.6603    6.5950    0.0000 O   0  0  0  0  0  0  0  0  0  0  0  0
    2.8660   -8.9050    0.0000 O   0  0  0  0  0  0  0  0  0  0  0  0
   15.8564    7.5950    0.0000 O   0  0  0  0  0  0  0  0  0  0  0  0
    4.5981   -9.9050    0.0000 O   0  0  0  0  0  0  0  0  0  0  0  0
   15.8564    9.5950    0.0000 O   0  0  0  0  0  0  0  0  0  0  0  0
    6.3301   -3.9050    0.0000 N   0  0  0  0  0  0  0  0  0  0  0  0
   11.5263    5.0950    0.0000 N   0  0  0  0  0  0  0  0  0  0  0  0
    7.1962   -2.4050    0.0000 C   0  0  0  0  0  0  0  0  0  0  0  0
   10.6603    3.5950    0.0000 C   0  0  0  0  0  0  0  0  0  0  0  0
    7.1962   -1.4050    0.0000 C   0  0  0  0  0  0  0  0  0  0  0  0
    9.7942    3.0950    0.0000 C   0  0  0  0  0  0  0  0  0  0  0  0
    6.3301   -2.9050    0.0000 C   0  0  0  0  0  0  0  0  0  0  0  0
   10.6603    4.5950    0.0000 C   0  0  0  0  0  0  0  0  0  0  0  0
    6.3301   -0.9050    0.0000 C   0  0  0  0  0  0  0  0  0  0  0  0
    9.7942    2.0950    0.0000 C   0  0  0  0  0  0  0  0  0  0  0  0
    8.0622   -0.9050    0.0000 C   0  0  0  0  0  0  0  0  0  0  0  0
    8.9282    3.5950    0.0000 C   0  0  0  0  0  0  0  0  0  0  0  0
    7.1962    0.5950    0.0000 C   0  0  0  0  0  0  0  0  0  0  0  0
    8.0622    2.0950    0.0000 C   0  0  0  0  0  0  0  0  0  0  0  0
    6.3301    0.0950    0.0000 C   0  0  0  0  0  0  0  0  0  0  0  0
    8.9282    1.5950    0.0000 C   0  0  0  0  0  0  0  0  0  0  0  0
    8.0622    0.0950    0.0000 C   0  0  0  0  0  0  0  0  0  0  0  0
    8.0622    3.0950    0.0000 C   0  0  0  0  0  0  0  0  0  0  0  0
    5.4641   -4.4050    0.0000 C   0  0  0  0  0  0  0  0  0  0  0  0
   11.5263    6.0950    0.0000 C   0  0  0  0  0  0  0  0  0  0  0  0
    5.4641   -5.4050    0.0000 C   0  0  0  0  0  0  0  0  0  0  0  0
   12.3923    6.5950    0.0000 C   0  0  0  0  0  0  0  0  0  0  0  0
    4.5981   -6.9050    0.0000 C   0  0  0  0  0  0  0  0  0  0  0  0
   13.2583    8.0950    0.0000 C   0  0  0  0  0  0  0  0  0  0  0  0
    4.5981   -5.9050    0.0000 C   0  0  0  0  0  0  0  0  0  0  0  0
   12.3923    7.5950    0.0000 C   0  0  0  0  0  0  0  0  0  0  0  0
    3.7320   -7.4050    0.0000 C   0  0  0  0  0  0  0  0  0  0  0  0
   14.1244    7.5950    0.0000 C   0  0  0  0  0  0  0  0  0  0  0  0
    5.4641   -7.4050    0.0000 C   0  0  0  0  0  0  0  0  0  0  0  0
   13.2583    9.0950    0.0000 C   0  0  0  0  0  0  0  0  0  0  0  0
    3.7320   -8.4050    0.0000 C   0  0  0  0  0  0  0  0  0  0  0  0
   14.9904    8.0950    0.0000 C   0  0  0  0  0  0  0  0  0  0  0  0
    4.5981   -8.9050    0.0000 C   0  0  0  0  0  0  0  0  0  0  0  0
   14.9904    9.0950    0.0000 C   0  0  0  0  0  0  0  0  0  0  0  0
    5.4641   -8.4050    0.0000 C   0  0  0  0  0  0  0  0  0  0  0  0
   14.1244    9.5950    0.0000 C   0  0  0  0  0  0  0  0  0  0  0  0
    2.0000   -8.4050    0.0000 C   0  0  0  0  0  0  0  0  0  0  0  0
   16.7224    8.0950    0.0000 C   0  0  0  0  0  0  0  0  0  0  0  0
    7.4082   -2.9876    0.0000 H   0  0  0  0  0  0  0  0  0  0  0  0
    7.8067   -2.2973    0.0000 H   0  0  0  0  0  0  0  0  0  0  0  0
   10.8723    3.0124    0.0000 H   0  0  0  0  0  0  0  0  0  0  0  0
   11.2708    3.7027    0.0000 H   0  0  0  0  0  0  0  0  0  0  0  0
    6.1181   -2.3224    0.0000 H   0  0  0  0  0  0  0  0  0  0  0  0
    5.7196   -3.0127    0.0000 H   0  0  0  0  0  0  0  0  0  0  0  0
   10.4482    5.1776    0.0000 H   0  0  0  0  0  0  0  0  0  0  0  0
   10.0497    4.4873    0.0000 H   0  0  0  0  0  0  0  0  0  0  0  0
    5.7932   -1.2150    0.0000 H   0  0  0  0  0  0  0  0  0  0  0  0
   10.3312    1.7850    0.0000 H   0  0  0  0  0  0  0  0  0  0  0  0
    8.5991   -1.2150    0.0000 H   0  0  0  0  0  0  0  0  0  0  0  0
    8.9282    4.2150    0.0000 H   0  0  0  0  0  0  0  0  0  0  0  0
    5.7932    0.4050    0.0000 H   0  0  0  0  0  0  0  0  0  0  0  0
    8.9282    0.9750    0.0000 H   0  0  0  0  0  0  0  0  0  0  0  0
    8.5991    0.4050    0.0000 H   0  0  0  0  0  0  0  0  0  0  0  0
    7.5252    3.4050    0.0000 H   0  0  0  0  0  0  0  0  0  0  0  0
    6.8671   -4.2150    0.0000 H   0  0  0  0  0  0  0  0  0  0  0  0
   12.0632    4.7850    0.0000 H   0  0  0  0  0  0  0  0  0  0  0  0
    6.0010   -5.7150    0.0000 H   0  0  0  0  0  0  0  0  0  0  0  0
   12.9292    6.2850    0.0000 H   0  0  0  0  0  0  0  0  0  0  0  0
    4.0611   -5.5950    0.0000 H   0  0  0  0  0  0  0  0  0  0  0  0
   11.8554    7.9050    0.0000 H   0  0  0  0  0  0  0  0  0  0  0  0
    3.1951   -7.0950    0.0000 H   0  0  0  0  0  0  0  0  0  0  0  0
   14.1244    6.9750    0.0000 H   0  0  0  0  0  0  0  0  0  0  0  0
    6.0010   -7.0950    0.0000 H   0  0  0  0  0  0  0  0  0  0  0  0
   12.7214    9.4050    0.0000 H   0  0  0  0  0  0  0  0  0  0  0  0
    6.0010   -8.7150    0.0000 H   0  0  0  0  0  0  0  0  0  0  0  0
   14.1244   10.2150    0.0000 H   0  0  0  0  0  0  0  0  0  0  0  0
    5.1350  -10.2150    0.0000 H   0  0  0  0  0  0  0  0  0  0  0  0
   15.8564   10.2150    0.0000 H   0  0  0  0  0  0  0  0  0  0  0  0
    2.3100   -7.8681    0.0000 H   0  0  0  0  0  0  0  0  0  0  0  0
    1.4631   -8.0950    0.0000 H   0  0  0  0  0  0  0  0  0  0  0  0
    1.6900   -8.9419    0.0000 H   0  0  0  0  0  0  0  0  0  0  0  0
   17.0324    7.5581    0.0000 H   0  0  0  0  0  0  0  0  0  0  0  0
   17.2594    8.4050    0.0000 H   0  0  0  0  0  0  0  0  0  0  0  0
   16.4124    8.6319    0.0000 H   0  0  0  0  0  0  0  0  0  0  0  0
  1 20  1  0  0  0  0
  1 21  1  0  0  0  0
  2 26  2  0  0  0  0
  3 27  2  0  0  0  0
  4 38  1  0  0  0  0
  4 44  1  0  0  0  0
  5 39  1  0  0  0  0
  5 45  1  0  0  0  0
  6 40  1  0  0  0  0
  6 74  1  0  0  0  0
  7 41  1  0  0  0  0
  7 75  1  0  0  0  0
  8 14  1  0  0  0  0
  8 26  1  0  0  0  0
  8 62  1  0  0  0  0
  9 15  1  0  0  0  0
  9 27  1  0  0  0  0
  9 63  1  0  0  0  0
 10 12  1  0  0  0  0
 10 14  1  0  0  0  0
 10 46  1  0  0  0  0
 10 47  1  0  0  0  0
 11 13  1  0  0  0  0
 11 15  1  0  0  0  0
 11 48  1  0  0  0  0
 11 49  1  0  0  0  0
 12 16  2  0  0  0  0
 12 18  1  0  0  0  0
 13 17  2  0  0  0  0
 13 19  1  0  0  0  0
 14 50  1  0  0  0  0
 14 51  1  0  0  0  0
 15 52  1  0  0  0  0
 15 53  1  0  0  0  0
 16 22  1  0  0  0  0
 16 54  1  0  0  0  0
 17 23  1  0  0  0  0
 17 55  1  0  0  0  0
 18 24  2  0  0  0  0
 18 56  1  0  0  0  0
 19 25  2  0  0  0  0
 19 57  1  0  0  0  0
 20 22  2  0  0  0  0
 20 24  1  0  0  0  0
 21 23  2  0  0  0  0
 21 25  1  0  0  0  0
 22 58  1  0  0  0  0
 23 59  1  0  0  0  0
 24 60  1  0  0  0  0
 25 61  1  0  0  0  0
 26 28  1  0  0  0  0
 27 29  1  0  0  0  0
 28 32  2  0  0  0  0
 28 64  1  0  0  0  0
 29 33  2  0  0  0  0
 29 65  1  0  0  0  0
 30 32  1  0  0  0  0
 30 34  2  0  0  0  0
 30 36  1  0  0  0  0
 31 33  1  0  0  0  0
 31 35  2  0  0  0  0
 31 37  1  0  0  0  0
 32 66  1  0  0  0  0
 33 67  1  0  0  0  0
 34 38  1  0  0  0  0
 34 68  1  0  0  0  0
 35 39  1  0  0  0  0
 35 69  1  0  0  0  0
 36 42  2  0  0  0  0
 36 70  1  0  0  0  0
 37 43  2  0  0  0  0
 37 71  1  0  0  0  0
 38 40  2  0  0  0  0
 39 41  2  0  0  0  0
 40 42  1  0  0  0  0
 41 43  1  0  0  0  0
 42 72  1  0  0  0  0
 43 73  1  0  0  0  0
 44 76  1  0  0  0  0
 44 77  1  0  0  0  0
 44 78  1  0  0  0  0
 45 79  1  0  0  0  0
 45 80  1  0  0  0  0
 45 81  1  0  0  0  0
M  END
> <PUBCHEM_COMPOUND_CID>
122218206

> <PUBCHEM_COMPOUND_CANONICALIZED>
1

> <PUBCHEM_CACTVS_COMPLEXITY>
868

> <PUBCHEM_CACTVS_HBOND_ACCEPTOR>
7

> <PUBCHEM_CACTVS_HBOND_DONOR>
4

> <PUBCHEM_CACTVS_ROTATABLE_BOND>
14

> <PUBCHEM_CACTVS_SUBSKEYS>
AAADcfB/OAAAAAAAAAAAAAAAAAAAAAAAAAAwYMGAAAAAAAABVAAAHgAQCAAADATBmAYyBoLABgCIAiFSEACCCAAgIAAIiIAOiMgNJiKGsRuGeCOk1hGLuYeQwJAOIAABAAAAQABAAAIAAACAAAAAAAAAAA==

> <PUBCHEM_IUPAC_OPENEYE_NAME>
(E)-3-(4-hydroxy-3-methoxy-phenyl)-N-[2-[4-[4-[2-[[(E)-3-(4-hydroxy-3-methoxy-phenyl)prop-2-enoyl]amino]ethyl]phenoxy]phenyl]ethyl]prop-2-enamide

> <PUBCHEM_IUPAC_CAS_NAME>
(E)-3-(4-hydroxy-3-methoxyphenyl)-N-[2-[4-[4-[2-[[(E)-3-(4-hydroxy-3-methoxyphenyl)-1-oxoprop-2-enyl]amino]ethyl]phenoxy]phenyl]ethyl]-2-propenamide

> <PUBCHEM_IUPAC_NAME_MARKUP>
(<I>E</I>)-3-(4-hydroxy-3-methoxyphenyl)-<I>N</I>-[2-[4-[4-[2-[[(<I>E</I>)-3-(4-hydroxy-3-methoxyphenyl)prop-2-enoyl]amino]ethyl]phenoxy]phenyl]ethyl]prop-2-enamide

> <PUBCHEM_IUPAC_NAME>
(E)-3-(4-hydroxy-3-methoxyphenyl)-N-[2-[4-[4-[2-[[(E)-3-(4-hydroxy-3-methoxyphenyl)prop-2-enoyl]amino]ethyl]phenoxy]phenyl]ethyl]prop-2-enamide

> <PUBCHEM_IUPAC_SYSTEMATIC_NAME>
(E)-3-(3-methoxy-4-oxidanyl-phenyl)-N-[2-[4-[4-[2-[[(E)-3-(3-methoxy-4-oxidanyl-phenyl)prop-2-enoyl]amino]ethyl]phenoxy]phenyl]ethyl]prop-2-enamide

> <PUBCHEM_IUPAC_TRADITIONAL_NAME>
(E)-3-(4-hydroxy-3-methoxy-phenyl)-N-[2-[4-[4-[2-[[(E)-3-(4-hydroxy-3-methoxy-phenyl)acryloyl]amino]ethyl]phenoxy]phenyl]ethyl]acrylamide

> <PUBCHEM_IUPAC_INCHI>
InChI=1S/C36H36N2O7/c1-43-33-23-27(7-15-31(33)39)9-17-35(41)37-21-19-25-3-11-29(12-4-25)45-30-13-5-26(6-14-30)20-22-38-36(42)18-10-28-8-16-32(40)34(24-28)44-2/h3-18,23-24,39-40H,19-22H2,1-2H3,(H,37,41)(H,38,42)/b17-9+,18-10+

> <PUBCHEM_IUPAC_INCHIKEY>
CMPSRANVZKOUNT-BEQMOXJMSA-N

> <PUBCHEM_XLOGP3>
5.3

> <PUBCHEM_EXACT_MASS>
608.252252

> <PUBCHEM_MOLECULAR_FORMULA>
C36H36N2O7

> <PUBCHEM_MOLECULAR_WEIGHT>
608.7

> <PUBCHEM_OPENEYE_CAN_SMILES>
COC1=C(C=CC(=C1)C=CC(=O)NCCC2=CC=C(C=C2)OC3=CC=C(C=C3)CCNC(=O)C=CC4=CC(=C(C=C4)O)OC)O

> <PUBCHEM_OPENEYE_ISO_SMILES>
COC1=C(C=CC(=C1)/C=C/C(=O)NCCC2=CC=C(C=C2)OC3=CC=C(C=C3)CCNC(=O)/C=C/C4=CC(=C(C=C4)O)OC)O

> <PUBCHEM_CACTVS_TPSA>
126

> <PUBCHEM_MONOISOTOPIC_WEIGHT>
608.252252

> <PUBCHEM_TOTAL_CHARGE>
0

> <PUBCHEM_HEAVY_ATOM_COUNT>
45

> <PUBCHEM_ATOM_DEF_STEREO_COUNT>
0

> <PUBCHEM_ATOM_UDEF_STEREO_COUNT>
0

> <PUBCHEM_BOND_DEF_STEREO_COUNT>
2

> <PUBCHEM_BOND_UDEF_STEREO_COUNT>
0

> <PUBCHEM_ISOTOPIC_ATOM_COUNT>
0

> <PUBCHEM_COMPONENT_COUNT>
1

> <PUBCHEM_CACTVS_TAUTO_COUNT>
-1

> <PUBCHEM_COORDINATE_TYPE>
1
5
255

> <PUBCHEM_BONDANNOTATIONS>
12  16  8
12  18  8
13  17  8
13  19  8
16  22  8
17  23  8
18  24  8
19  25  8
20  22  8
20  24  8
21  23  8
21  25  8
30  34  8
30  36  8
31  35  8
31  37  8
34  38  8
35  39  8
36  42  8
37  43  8
38  40  8
39  41  8
40  42  8
41  43  8

$$$$
