100928037
  -OEChem-09042011452D

118120  0     1  0  0  0  0  0999 V2000
   13.7953    4.5000    0.0000 O   0  0  0  0  0  0  0  0  0  0  0  0
   15.5273    2.5000    0.0000 O   0  0  0  0  0  0  0  0  0  0  0  0
   16.3933    1.0000    0.0000 O   0  0  0  0  0  0  0  0  0  0  0  0
    4.2690   -4.0000    0.0000 O   0  0  0  0  0  0  0  0  0  0  0  0
    6.0010   -4.0000    0.0000 O   0  0  0  0  0  0  0  0  0  0  0  0
   16.3933    4.0000    0.0000 O   0  0  0  0  0  0  0  0  0  0  0  0
   12.9292    6.0000    0.0000 O   0  0  0  0  0  0  0  0  0  0  0  0
   16.3933    6.0000    0.0000 O   0  0  0  0  0  0  0  0  0  0  0  0
   14.6613    7.0000    0.0000 O   0  0  0  0  0  0  0  0  0  0  0  0
   13.7953    1.5000    0.0000 O   0  0  0  0  0  0  0  0  0  0  0  0
   13.7953   -0.5000    0.0000 O   0  0  0  0  0  0  0  0  0  0  0  0
   15.5273   -1.5000    0.0000 O   0  0  0  0  0  0  0  0  0  0  0  0
    4.2690   -7.0000    0.0000 O   0  0  0  0  0  0  0  0  0  0  0  0
    6.0010   -6.0000    0.0000 O   0  0  0  0  0  0  0  0  0  0  0  0
    2.5369   -6.0000    0.0000 O   0  0  0  0  0  0  0  0  0  0  0  0
    2.5369   -3.0000    0.0000 O   0  0  0  0  0  0  0  0  0  0  0  0
   14.6613    4.0000    0.0000 C   0  0  1  0  0  0  0  0  0  0  0  0
   15.5273    4.5000    0.0000 C   0  0  2  0  0  0  0  0  0  0  0  0
   15.5273    5.5000    0.0000 C   0  0  1  0  0  0  0  0  0  0  0  0
   14.6613    6.0000    0.0000 C   0  0  2  0  0  0  0  0  0  0  0  0
   14.6613    1.0000    0.0000 C   0  0  1  0  0  0  0  0  0  0  0  0
   15.5273    1.5000    0.0000 C   0  0  2  0  0  0  0  0  0  0  0  0
   14.6613    0.0000    0.0000 C   0  0  1  0  0  0  0  0  0  0  0  0
   15.5273   -0.5000    0.0000 C   0  0  2  0  0  0  0  0  0  0  0  0
   13.7953    5.5000    0.0000 C   0  0  1  0  0  0  0  0  0  0  0  0
   14.6613    3.0000    0.0000 C   0  0  0  0  0  0  0  0  0  0  0  0
    4.2690   -6.0000    0.0000 C   0  0  2  0  0  0  0  0  0  0  0  0
   16.3933    0.0000    0.0000 C   0  0  2  0  0  0  0  0  0  0  0  0
    5.1350   -5.5000    0.0000 C   0  0  2  0  0  0  0  0  0  0  0  0
    3.4030   -5.5000    0.0000 C   0  0  1  0  0  0  0  0  0  0  0  0
    5.1350   -4.5000    0.0000 C   0  0  1  0  0  0  0  0  0  0  0  0
    3.4030   -4.5000    0.0000 C   0  0  1  0  0  0  0  0  0  0  0  0
    6.0010   -3.0000    0.0000 C   0  0  2  0  0  0  0  0  0  0  0  0
   17.2594   -0.5000    0.0000 C   0  0  0  0  0  0  0  0  0  0  0  0
    2.5369   -4.0000    0.0000 C   0  0  0  0  0  0  0  0  0  0  0  0
    6.0010   -2.0000    0.0000 C   0  0  0  0  0  0  0  0  0  0  0  0
    5.0010   -3.0000    0.0000 C   0  0  0  0  0  0  0  0  0  0  0  0
    6.8671   -1.5000    0.0000 C   0  0  0  0  0  0  0  0  0  0  0  0
   12.0632    5.5000    0.0000 C   0  0  0  0  0  0  0  0  0  0  0  0
    7.0010   -3.0000    0.0000 C   0  0  0  0  0  0  0  0  0  0  0  0
   11.1972    6.0000    0.0000 C   0  0  0  0  0  0  0  0  0  0  0  0
    6.8671   -0.5000    0.0000 C   0  0  0  0  0  0  0  0  0  0  0  0
    7.5010   -3.8660    0.0000 C   0  0  0  0  0  0  0  0  0  0  0  0
    7.7331   -0.0000    0.0000 C   0  0  0  0  0  0  0  0  0  0  0  0
   10.3312    5.5000    0.0000 C   0  0  0  0  0  0  0  0  0  0  0  0
   11.1972    7.0000    0.0000 C   0  0  0  0  0  0  0  0  0  0  0  0
    7.7331    1.0000    0.0000 C   0  0  0  0  0  0  0  0  0  0  0  0
   10.3312    4.5000    0.0000 C   0  0  0  0  0  0  0  0  0  0  0  0
    8.5991    1.5000    0.0000 C   0  0  0  0  0  0  0  0  0  0  0  0
    9.4651    4.0000    0.0000 C   0  0  0  0  0  0  0  0  0  0  0  0
    8.5991   -0.5000    0.0000 C   0  0  0  0  0  0  0  0  0  0  0  0
    9.4651    3.0000    0.0000 C   0  0  0  0  0  0  0  0  0  0  0  0
    8.5991    2.5000    0.0000 C   0  0  0  0  0  0  0  0  0  0  0  0
   10.3312    2.5000    0.0000 C   0  0  0  0  0  0  0  0  0  0  0  0
   14.1244    3.6900    0.0000 H   0  0  0  0  0  0  0  0  0  0  0  0
   15.5273    3.8800    0.0000 H   0  0  0  0  0  0  0  0  0  0  0  0
   16.0643    5.1900    0.0000 H   0  0  0  0  0  0  0  0  0  0  0  0
   15.1982    6.3100    0.0000 H   0  0  0  0  0  0  0  0  0  0  0  0
   14.1244    0.6900    0.0000 H   0  0  0  0  0  0  0  0  0  0  0  0
   14.9904    1.8100    0.0000 H   0  0  0  0  0  0  0  0  0  0  0  0
   14.6613   -0.6200    0.0000 H   0  0  0  0  0  0  0  0  0  0  0  0
   16.0643   -0.8100    0.0000 H   0  0  0  0  0  0  0  0  0  0  0  0
   13.7953    6.1200    0.0000 H   0  0  0  0  0  0  0  0  0  0  0  0
   14.0507    3.1077    0.0000 H   0  0  0  0  0  0  0  0  0  0  0  0
   14.4492    2.4174    0.0000 H   0  0  0  0  0  0  0  0  0  0  0  0
    3.7320   -6.3100    0.0000 H   0  0  0  0  0  0  0  0  0  0  0  0
   16.9303    0.3100    0.0000 H   0  0  0  0  0  0  0  0  0  0  0  0
    5.1350   -6.1200    0.0000 H   0  0  0  0  0  0  0  0  0  0  0  0
    3.4030   -6.1200    0.0000 H   0  0  0  0  0  0  0  0  0  0  0  0
    5.1350   -3.8800    0.0000 H   0  0  0  0  0  0  0  0  0  0  0  0
    3.4030   -3.8800    0.0000 H   0  0  0  0  0  0  0  0  0  0  0  0
   16.9494   -1.0369    0.0000 H   0  0  0  0  0  0  0  0  0  0  0  0
   17.7963   -0.8100    0.0000 H   0  0  0  0  0  0  0  0  0  0  0  0
   17.5694    0.0369    0.0000 H   0  0  0  0  0  0  0  0  0  0  0  0
    1.9264   -3.8923    0.0000 H   0  0  0  0  0  0  0  0  0  0  0  0
    2.3249   -4.5826    0.0000 H   0  0  0  0  0  0  0  0  0  0  0  0
   16.9303    4.3100    0.0000 H   0  0  0  0  0  0  0  0  0  0  0  0
    5.7890   -1.4174    0.0000 H   0  0  0  0  0  0  0  0  0  0  0  0
    5.3905   -2.1077    0.0000 H   0  0  0  0  0  0  0  0  0  0  0  0
   16.9303    5.6900    0.0000 H   0  0  0  0  0  0  0  0  0  0  0  0
   15.1982    7.3100    0.0000 H   0  0  0  0  0  0  0  0  0  0  0  0
   13.2583    1.1900    0.0000 H   0  0  0  0  0  0  0  0  0  0  0  0
   13.7953   -1.1200    0.0000 H   0  0  0  0  0  0  0  0  0  0  0  0
   16.0643   -1.8100    0.0000 H   0  0  0  0  0  0  0  0  0  0  0  0
    3.7320   -7.3100    0.0000 H   0  0  0  0  0  0  0  0  0  0  0  0
    5.0010   -2.3800    0.0000 H   0  0  0  0  0  0  0  0  0  0  0  0
    4.3810   -3.0000    0.0000 H   0  0  0  0  0  0  0  0  0  0  0  0
    5.0010   -3.6200    0.0000 H   0  0  0  0  0  0  0  0  0  0  0  0
    6.0010   -6.6200    0.0000 H   0  0  0  0  0  0  0  0  0  0  0  0
    2.0000   -5.6900    0.0000 H   0  0  0  0  0  0  0  0  0  0  0  0
    7.0791   -2.0826    0.0000 H   0  0  0  0  0  0  0  0  0  0  0  0
    7.4776   -1.3923    0.0000 H   0  0  0  0  0  0  0  0  0  0  0  0
   11.6647    5.0250    0.0000 H   0  0  0  0  0  0  0  0  0  0  0  0
   12.4617    5.0250    0.0000 H   0  0  0  0  0  0  0  0  0  0  0  0
    7.3110   -2.4631    0.0000 H   0  0  0  0  0  0  0  0  0  0  0  0
    2.0000   -2.6900    0.0000 H   0  0  0  0  0  0  0  0  0  0  0  0
    6.3301   -0.1900    0.0000 H   0  0  0  0  0  0  0  0  0  0  0  0
    7.1910   -4.4030    0.0000 H   0  0  0  0  0  0  0  0  0  0  0  0
    8.1210   -3.8660    0.0000 H   0  0  0  0  0  0  0  0  0  0  0  0
    9.7942    5.8100    0.0000 H   0  0  0  0  0  0  0  0  0  0  0  0
   11.8172    7.0000    0.0000 H   0  0  0  0  0  0  0  0  0  0  0  0
   11.1972    7.6200    0.0000 H   0  0  0  0  0  0  0  0  0  0  0  0
   10.5772    7.0000    0.0000 H   0  0  0  0  0  0  0  0  0  0  0  0
    7.5210    1.5826    0.0000 H   0  0  0  0  0  0  0  0  0  0  0  0
    7.1225    0.8923    0.0000 H   0  0  0  0  0  0  0  0  0  0  0  0
   10.5432    3.9174    0.0000 H   0  0  0  0  0  0  0  0  0  0  0  0
   10.9417    4.6077    0.0000 H   0  0  0  0  0  0  0  0  0  0  0  0
    8.8112    0.9174    0.0000 H   0  0  0  0  0  0  0  0  0  0  0  0
    9.2097    1.6077    0.0000 H   0  0  0  0  0  0  0  0  0  0  0  0
    9.2531    4.5826    0.0000 H   0  0  0  0  0  0  0  0  0  0  0  0
    8.8546    3.8923    0.0000 H   0  0  0  0  0  0  0  0  0  0  0  0
    8.2891   -1.0369    0.0000 H   0  0  0  0  0  0  0  0  0  0  0  0
    9.1360   -0.8100    0.0000 H   0  0  0  0  0  0  0  0  0  0  0  0
    8.9091    0.0369    0.0000 H   0  0  0  0  0  0  0  0  0  0  0  0
    8.0622    2.8100    0.0000 H   0  0  0  0  0  0  0  0  0  0  0  0
   10.0212    1.9631    0.0000 H   0  0  0  0  0  0  0  0  0  0  0  0
   10.8681    2.1900    0.0000 H   0  0  0  0  0  0  0  0  0  0  0  0
   10.6412    3.0369    0.0000 H   0  0  0  0  0  0  0  0  0  0  0  0
  1 17  1  0  0  0  0
  1 25  1  0  0  0  0
 22  2  1  6  0  0  0
  2 26  1  0  0  0  0
  3 22  1  0  0  0  0
  3 28  1  0  0  0  0
  4 31  1  0  0  0  0
  4 32  1  0  0  0  0
 31  5  1  1  0  0  0
 33  5  1  1  0  0  0
 18  6  1  6  0  0  0
  6 77  1  0  0  0  0
 25  7  1  1  0  0  0
  7 39  1  0  0  0  0
 19  8  1  1  0  0  0
  8 80  1  0  0  0  0
 20  9  1  6  0  0  0
  9 81  1  0  0  0  0
 21 10  1  1  0  0  0
 10 82  1  0  0  0  0
 23 11  1  1  0  0  0
 11 83  1  0  0  0  0
 24 12  1  6  0  0  0
 12 84  1  0  0  0  0
 27 13  1  1  0  0  0
 13 85  1  0  0  0  0
 29 14  1  6  0  0  0
 14 89  1  0  0  0  0
 30 15  1  6  0  0  0
 15 90  1  0  0  0  0
 16 35  1  0  0  0  0
 16 96  1  0  0  0  0
 17 18  1  0  0  0  0
 17 26  1  1  0  0  0
 17 55  1  0  0  0  0
 18 19  1  0  0  0  0
 18 56  1  0  0  0  0
 19 20  1  0  0  0  0
 19 57  1  0  0  0  0
 20 25  1  0  0  0  0
 20 58  1  0  0  0  0
 21 22  1  0  0  0  0
 21 23  1  0  0  0  0
 21 59  1  0  0  0  0
 22 60  1  0  0  0  0
 23 24  1  0  0  0  0
 23 61  1  0  0  0  0
 24 28  1  0  0  0  0
 24 62  1  0  0  0  0
 25 63  1  0  0  0  0
 26 64  1  0  0  0  0
 26 65  1  0  0  0  0
 27 29  1  0  0  0  0
 27 30  1  0  0  0  0
 27 66  1  0  0  0  0
 28 34  1  1  0  0  0
 28 67  1  0  0  0  0
 29 31  1  0  0  0  0
 29 68  1  0  0  0  0
 30 32  1  0  0  0  0
 30 69  1  0  0  0  0
 31 70  1  0  0  0  0
 32 35  1  1  0  0  0
 32 71  1  0  0  0  0
 33 36  1  0  0  0  0
 33 37  1  0  0  0  0
 33 40  1  0  0  0  0
 34 72  1  0  0  0  0
 34 73  1  0  0  0  0
 34 74  1  0  0  0  0
 35 75  1  0  0  0  0
 35 76  1  0  0  0  0
 36 38  1  0  0  0  0
 36 78  1  0  0  0  0
 36 79  1  0  0  0  0
 37 86  1  0  0  0  0
 37 87  1  0  0  0  0
 37 88  1  0  0  0  0
 38 42  1  0  0  0  0
 38 91  1  0  0  0  0
 38 92  1  0  0  0  0
 39 41  1  0  0  0  0
 39 93  1  0  0  0  0
 39 94  1  0  0  0  0
 40 43  2  0  0  0  0
 40 95  1  0  0  0  0
 41 45  2  0  0  0  0
 41 46  1  0  0  0  0
 42 44  2  0  0  0  0
 42 97  1  0  0  0  0
 43 98  1  0  0  0  0
 43 99  1  0  0  0  0
 44 47  1  0  0  0  0
 44 51  1  0  0  0  0
 45 48  1  0  0  0  0
 45100  1  0  0  0  0
 46101  1  0  0  0  0
 46102  1  0  0  0  0
 46103  1  0  0  0  0
 47 49  1  0  0  0  0
 47104  1  0  0  0  0
 47105  1  0  0  0  0
 48 50  1  0  0  0  0
 48106  1  0  0  0  0
 48107  1  0  0  0  0
 49 53  1  0  0  0  0
 49108  1  0  0  0  0
 49109  1  0  0  0  0
 50 52  1  0  0  0  0
 50110  1  0  0  0  0
 50111  1  0  0  0  0
 51112  1  0  0  0  0
 51113  1  0  0  0  0
 51114  1  0  0  0  0
 52 53  2  0  0  0  0
 52 54  1  0  0  0  0
 53115  1  0  0  0  0
 54116  1  0  0  0  0
 54117  1  0  0  0  0
 54118  1  0  0  0  0
M  END
> <PUBCHEM_COMPOUND_CID>
100928037

> <PUBCHEM_COMPOUND_CANONICALIZED>
1

> <PUBCHEM_CACTVS_COMPLEXITY>
1240

> <PUBCHEM_CACTVS_HBOND_ACCEPTOR>
16

> <PUBCHEM_CACTVS_HBOND_DONOR>
10

> <PUBCHEM_CACTVS_ROTATABLE_BOND>
19

> <PUBCHEM_CACTVS_SUBSKEYS>
AAADcfB8PgAAAAAAAAAAAAAAAAAAAAAAAAAkSJAAAAAAAAAAAAAAGgAACAAADFSwgAMCCAAABgCAAiBCAAAAAAAgAAAICAAAAAgRFAIAIQAiUAAFgAAPIAPAYAwMAAAAAAAAAAAAAAAAAAAAAAAAAAAAAA==

> <PUBCHEM_IUPAC_OPENEYE_NAME>
(2S,3R,4R,5R,6R)-2-methyl-6-[[(2R,3S,4S,5R,6R)-3,4,5-trihydroxy-6-[(2Z,6E,10E,14S)-2,6,10,14-tetramethyl-14-[(2S,3R,4S,5S,6R)-3,4,5-trihydroxy-6-(hydroxymethyl)tetrahydropyran-2-yl]oxy-hexadeca-2,6,10,15-tetraenoxy]tetrahydropyran-2-yl]methoxy]tetrahydropyran-3,4,5-triol

> <PUBCHEM_IUPAC_CAS_NAME>
(2S,3R,4R,5R,6R)-2-methyl-6-[[(2R,3S,4S,5R,6R)-3,4,5-trihydroxy-6-[(2Z,6E,10E,14S)-2,6,10,14-tetramethyl-14-[[(2S,3R,4S,5S,6R)-3,4,5-trihydroxy-6-(hydroxymethyl)-2-oxanyl]oxy]hexadeca-2,6,10,15-tetraenoxy]-2-oxanyl]methoxy]oxane-3,4,5-triol

> <PUBCHEM_IUPAC_NAME_MARKUP>
(2<I>S</I>,3<I>R</I>,4<I>R</I>,5<I>R</I>,6<I>R</I>)-2-methyl-6-[[(2<I>R</I>,3<I>S</I>,4<I>S</I>,5<I>R</I>,6<I>R</I>)-3,4,5-trihydroxy-6-[(2<I>Z</I>,6<I>E</I>,10<I>E</I>,14<I>S</I>)-2,6,10,14-tetramethyl-14-[(2<I>S</I>,3<I>R</I>,4<I>S</I>,5<I>S</I>,6<I>R</I>)-3,4,5-trihydroxy-6-(hydroxymethyl)oxan-2-yl]oxyhexadeca-2,6,10,15-tetraenoxy]oxan-2-yl]methoxy]oxane-3,4,5-triol

> <PUBCHEM_IUPAC_NAME>
(2S,3R,4R,5R,6R)-2-methyl-6-[[(2R,3S,4S,5R,6R)-3,4,5-trihydroxy-6-[(2Z,6E,10E,14S)-2,6,10,14-tetramethyl-14-[(2S,3R,4S,5S,6R)-3,4,5-trihydroxy-6-(hydroxymethyl)oxan-2-yl]oxyhexadeca-2,6,10,15-tetraenoxy]oxan-2-yl]methoxy]oxane-3,4,5-triol

> <PUBCHEM_IUPAC_SYSTEMATIC_NAME>
(2R,3R,4R,5R,6S)-2-[[(2R,3S,4S,5R,6R)-6-[(2Z,6E,10E,14S)-14-[(2S,3R,4S,5S,6R)-6-(hydroxymethyl)-3,4,5-tris(oxidanyl)oxan-2-yl]oxy-2,6,10,14-tetramethyl-hexadeca-2,6,10,15-tetraenoxy]-3,4,5-tris(oxidanyl)oxan-2-yl]methoxy]-6-methyl-oxane-3,4,5-triol

> <PUBCHEM_IUPAC_TRADITIONAL_NAME>
(2S,3R,4R,5R,6R)-2-methyl-6-[[(2R,3S,4S,5R,6R)-3,4,5-trihydroxy-6-[(2Z,6E,10E,14S)-2,6,10,14-tetramethyl-14-[(2S,3R,4S,5S,6R)-3,4,5-trihydroxy-6-methylol-tetrahydropyran-2-yl]oxy-hexadeca-2,6,10,15-tetraenoxy]tetrahydropyran-2-yl]methoxy]tetrahydropyran-3,4,5-triol

> <PUBCHEM_IUPAC_INCHI>
InChI=1S/C38H64O16/c1-7-38(6,54-37-34(48)30(44)27(41)24(17-39)52-37)16-10-15-21(3)12-8-11-20(2)13-9-14-22(4)18-49-36-33(47)31(45)28(42)25(53-36)19-50-35-32(46)29(43)26(40)23(5)51-35/h7,11,14-15,23-37,39-48H,1,8-10,12-13,16-19H2,2-6H3/b20-11+,21-15+,22-14-/t23-,24+,25+,26-,27+,28+,29+,30-,31-,32+,33+,34+,35+,36+,37-,38+/m0/s1

> <PUBCHEM_IUPAC_INCHIKEY>
LYWKKSXGZAKXMV-WSFNFWLKSA-N

> <PUBCHEM_XLOGP3_AA>
0.4

> <PUBCHEM_EXACT_MASS>
776.419436

> <PUBCHEM_MOLECULAR_FORMULA>
C38H64O16

> <PUBCHEM_MOLECULAR_WEIGHT>
776.9

> <PUBCHEM_OPENEYE_CAN_SMILES>
CC1C(C(C(C(O1)OCC2C(C(C(C(O2)OCC(=CCCC(=CCCC(=CCCC(C)(C=C)OC3C(C(C(C(O3)CO)O)O)O)C)C)C)O)O)O)O)O)O

> <PUBCHEM_OPENEYE_ISO_SMILES>
C[C@H]1[C@@H]([C@H]([C@H]([C@@H](O1)OC[C@@H]2[C@H]([C@@H]([C@H]([C@@H](O2)OC/C(=C\CC/C(=C/CC/C(=C/CC[C@@](C)(C=C)O[C@H]3[C@@H]([C@H]([C@@H]([C@H](O3)CO)O)O)O)/C)/C)/C)O)O)O)O)O)O

> <PUBCHEM_CACTVS_TPSA>
258

> <PUBCHEM_MONOISOTOPIC_WEIGHT>
776.419436

> <PUBCHEM_TOTAL_CHARGE>
0

> <PUBCHEM_HEAVY_ATOM_COUNT>
54

> <PUBCHEM_ATOM_DEF_STEREO_COUNT>
16

> <PUBCHEM_ATOM_UDEF_STEREO_COUNT>
0

> <PUBCHEM_BOND_DEF_STEREO_COUNT>
3

> <PUBCHEM_BOND_UDEF_STEREO_COUNT>
0

> <PUBCHEM_ISOTOPIC_ATOM_COUNT>
0

> <PUBCHEM_COMPONENT_COUNT>
1

> <PUBCHEM_CACTVS_TAUTO_COUNT>
-1

> <PUBCHEM_COORDINATE_TYPE>
1
5
255

> <PUBCHEM_BONDANNOTATIONS>
21  10  5
23  11  5
24  12  6
27  13  5
29  14  6
30  15  6
17  26  5
22  2  6
28  34  5
32  35  5
31  5  5
33  5  5
18  6  6
25  7  5
19  8  5
20  9  6

$$$$
