129727163
  -OEChem-11202007162D

130133  0     1  0  0  0  0  0999 V2000
    6.7469   -4.8924    0.0000 O   0  0  0  0  0  0  0  0  0  0  0  0
    4.9034   -8.0018    0.0000 O   0  0  0  0  0  0  0  0  0  0  0  0
    5.0151   -4.8590    0.0000 O   0  0  0  0  0  0  0  0  0  0  0  0
   10.2965   -4.9494    0.0000 C   0  0  1  0  0  0  0  0  0  0  0  0
   10.2965   -5.9494    0.0000 C   0  0  2  0  0  0  0  0  0  0  0  0
    9.4305   -6.4494    0.0000 C   0  0  1  0  0  0  0  0  0  0  0  0
    8.5644   -5.9494    0.0000 C   0  0  1  0  0  0  0  0  0  0  0  0
   11.2427   -4.6447    0.0000 C   0  0  2  0  0  0  0  0  0  0  0  0
    7.6544   -6.4563    0.0000 C   0  0  2  0  0  0  0  0  0  0  0  0
    9.4305   -4.4494    0.0000 C   0  0  0  0  0  0  0  0  0  0  0  0
   11.2427   -6.2542    0.0000 C   0  0  0  0  0  0  0  0  0  0  0  0
    8.5644   -4.9494    0.0000 C   0  0  0  0  0  0  0  0  0  0  0  0
   11.8263   -5.4494    0.0000 C   0  0  0  0  0  0  0  0  0  0  0  0
    9.4465   -7.4910    0.0000 C   0  0  0  0  0  0  0  0  0  0  0  0
   10.2965   -3.9494    0.0000 C   0  0  0  0  0  0  0  0  0  0  0  0
    7.6464   -7.4979    0.0000 C   0  0  0  0  0  0  0  0  0  0  0  0
    6.7276   -5.8922    0.0000 C   0  0  3  0  0  0  0  0  0  0  0  0
   11.5534   -3.6942    0.0000 C   0  0  2  0  0  0  0  0  0  0  0  0
    8.5485   -8.0187    0.0000 C   0  0  0  0  0  0  0  0  0  0  0  0
    7.6621   -5.4563    0.0000 C   0  0  0  0  0  0  0  0  0  0  0  0
    6.7110   -8.0476    0.0000 C   0  0  0  0  0  0  0  0  0  0  0  0
    5.7797   -6.4202    0.0000 C   0  0  0  0  0  0  0  0  0  0  0  0
    5.7714   -7.5051    0.0000 C   0  0  1  0  0  0  0  0  0  0  0  0
   10.8855   -2.9499    0.0000 C   0  0  0  0  0  0  0  0  0  0  0  0
   12.5319   -3.4880    0.0000 C   0  0  0  0  0  0  0  0  0  0  0  0
   12.8425   -2.5375    0.0000 C   0  0  0  0  0  0  0  0  0  0  0  0
    5.8906   -4.3758    0.0000 C   0  0  0  0  0  0  0  0  0  0  0  0
   13.8210   -2.3312    0.0000 C   0  0  1  0  0  0  0  0  0  0  0  0
    5.9099   -3.3760    0.0000 C   0  0  0  0  0  0  0  0  0  0  0  0
   14.1317   -1.3807    0.0000 C   0  0  0  0  0  0  0  0  0  0  0  0
   14.4889   -3.0755    0.0000 C   0  0  0  0  0  0  0  0  0  0  0  0
    5.0537   -2.8594    0.0000 C   0  0  0  0  0  0  0  0  0  0  0  0
   15.1102   -1.1745    0.0000 C   0  0  0  0  0  0  0  0  0  0  0  0
   13.4639   -0.6364    0.0000 C   0  0  0  0  0  0  0  0  0  0  0  0
   15.4674   -2.8693    0.0000 C   0  0  0  0  0  0  0  0  0  0  0  0
    5.0729   -1.8596    0.0000 C   0  0  0  0  0  0  0  0  0  0  0  0
    4.2167   -1.3430    0.0000 C   0  0  0  0  0  0  0  0  0  0  0  0
    4.2360   -0.3432    0.0000 C   0  0  0  0  0  0  0  0  0  0  0  0
    3.3798    0.1734    0.0000 C   0  0  0  0  0  0  0  0  0  0  0  0
    3.3990    1.1732    0.0000 C   0  0  0  0  0  0  0  0  0  0  0  0
    2.5428    1.6898    0.0000 C   0  0  0  0  0  0  0  0  0  0  0  0
    2.5621    2.6896    0.0000 C   0  0  0  0  0  0  0  0  0  0  0  0
    3.4376    3.1729    0.0000 C   0  0  0  0  0  0  0  0  0  0  0  0
    3.4568    4.1727    0.0000 C   0  0  0  0  0  0  0  0  0  0  0  0
    4.3324    4.6559    0.0000 C   0  0  0  0  0  0  0  0  0  0  0  0
    4.3516    5.6557    0.0000 C   0  0  0  0  0  0  0  0  0  0  0  0
    5.2271    6.1389    0.0000 C   0  0  0  0  0  0  0  0  0  0  0  0
    5.2464    7.1388    0.0000 C   0  0  0  0  0  0  0  0  0  0  0  0
    6.1219    7.6220    0.0000 C   0  0  0  0  0  0  0  0  0  0  0  0
    6.1412    8.6218    0.0000 C   0  0  0  0  0  0  0  0  0  0  0  0
   10.3864   -6.7947    0.0000 H   0  0  0  0  0  0  0  0  0  0  0  0
   10.1698   -6.8688    0.0000 H   0  0  0  0  0  0  0  0  0  0  0  0
    9.3006   -5.5244    0.0000 H   0  0  0  0  0  0  0  0  0  0  0  0
   12.0824   -4.5128    0.0000 H   0  0  0  0  0  0  0  0  0  0  0  0
    9.8290   -3.9745    0.0000 H   0  0  0  0  0  0  0  0  0  0  0  0
    9.0319   -3.9745    0.0000 H   0  0  0  0  0  0  0  0  0  0  0  0
   10.9917   -6.8211    0.0000 H   0  0  0  0  0  0  0  0  0  0  0  0
   11.7801   -6.5634    0.0000 H   0  0  0  0  0  0  0  0  0  0  0  0
    8.3524   -4.3668    0.0000 H   0  0  0  0  0  0  0  0  0  0  0  0
    7.9538   -5.0571    0.0000 H   0  0  0  0  0  0  0  0  0  0  0  0
   12.2872   -5.8642    0.0000 H   0  0  0  0  0  0  0  0  0  0  0  0
   12.2872   -5.0347    0.0000 H   0  0  0  0  0  0  0  0  0  0  0  0
    9.6646   -8.0714    0.0000 H   0  0  0  0  0  0  0  0  0  0  0  0
   10.0557   -7.3755    0.0000 H   0  0  0  0  0  0  0  0  0  0  0  0
   10.9165   -3.9494    0.0000 H   0  0  0  0  0  0  0  0  0  0  0  0
   10.2965   -3.3294    0.0000 H   0  0  0  0  0  0  0  0  0  0  0  0
    9.6765   -3.9494    0.0000 H   0  0  0  0  0  0  0  0  0  0  0  0
    7.2710   -5.5937    0.0000 H   0  0  0  0  0  0  0  0  0  0  0  0
   10.9467   -3.8221    0.0000 H   0  0  0  0  0  0  0  0  0  0  0  0
    8.5509   -8.6387    0.0000 H   0  0  0  0  0  0  0  0  0  0  0  0
    8.2821   -5.4611    0.0000 H   0  0  0  0  0  0  0  0  0  0  0  0
    7.6669   -4.8364    0.0000 H   0  0  0  0  0  0  0  0  0  0  0  0
    7.0422   -5.4516    0.0000 H   0  0  0  0  0  0  0  0  0  0  0  0
    6.3137   -8.5236    0.0000 H   0  0  0  0  0  0  0  0  0  0  0  0
    7.1120   -8.5205    0.0000 H   0  0  0  0  0  0  0  0  0  0  0  0
    5.5752   -5.8349    0.0000 H   0  0  0  0  0  0  0  0  0  0  0  0
    5.1681   -6.5215    0.0000 H   0  0  0  0  0  0  0  0  0  0  0  0
    5.2362   -7.1920    0.0000 H   0  0  0  0  0  0  0  0  0  0  0  0
   11.3470   -2.5358    0.0000 H   0  0  0  0  0  0  0  0  0  0  0  0
   10.4715   -2.4884    0.0000 H   0  0  0  0  0  0  0  0  0  0  0  0
   10.4241   -3.3640    0.0000 H   0  0  0  0  0  0  0  0  0  0  0  0
   12.9459   -3.9494    0.0000 H   0  0  0  0  0  0  0  0  0  0  0  0
    4.9010   -8.6218    0.0000 H   0  0  0  0  0  0  0  0  0  0  0  0
   12.4285   -2.0760    0.0000 H   0  0  0  0  0  0  0  0  0  0  0  0
   14.4277   -2.2034    0.0000 H   0  0  0  0  0  0  0  0  0  0  0  0
    6.5183   -3.4954    0.0000 H   0  0  0  0  0  0  0  0  0  0  0  0
    6.1332   -2.7976    0.0000 H   0  0  0  0  0  0  0  0  0  0  0  0
   13.5250   -1.5086    0.0000 H   0  0  0  0  0  0  0  0  0  0  0  0
   13.9625   -3.4032    0.0000 H   0  0  0  0  0  0  0  0  0  0  0  0
   14.7201   -3.6508    0.0000 H   0  0  0  0  0  0  0  0  0  0  0  0
    4.4453   -2.7400    0.0000 H   0  0  0  0  0  0  0  0  0  0  0  0
    4.8304   -3.4378    0.0000 H   0  0  0  0  0  0  0  0  0  0  0  0
   15.2381   -1.7812    0.0000 H   0  0  0  0  0  0  0  0  0  0  0  0
   15.7169   -1.0466    0.0000 H   0  0  0  0  0  0  0  0  0  0  0  0
   14.9824   -0.5678    0.0000 H   0  0  0  0  0  0  0  0  0  0  0  0
   13.9253   -0.2224    0.0000 H   0  0  0  0  0  0  0  0  0  0  0  0
   13.0498   -0.1750    0.0000 H   0  0  0  0  0  0  0  0  0  0  0  0
   13.0024   -1.0505    0.0000 H   0  0  0  0  0  0  0  0  0  0  0  0
   15.5952   -3.4760    0.0000 H   0  0  0  0  0  0  0  0  0  0  0  0
   16.0741   -2.7415    0.0000 H   0  0  0  0  0  0  0  0  0  0  0  0
   15.3395   -2.2626    0.0000 H   0  0  0  0  0  0  0  0  0  0  0  0
    5.6814   -1.9790    0.0000 H   0  0  0  0  0  0  0  0  0  0  0  0
    5.2962   -1.2812    0.0000 H   0  0  0  0  0  0  0  0  0  0  0  0
    3.6083   -1.2236    0.0000 H   0  0  0  0  0  0  0  0  0  0  0  0
    3.9935   -1.9214    0.0000 H   0  0  0  0  0  0  0  0  0  0  0  0
    4.8444   -0.4626    0.0000 H   0  0  0  0  0  0  0  0  0  0  0  0
    4.4592    0.2352    0.0000 H   0  0  0  0  0  0  0  0  0  0  0  0
    2.7714    0.2928    0.0000 H   0  0  0  0  0  0  0  0  0  0  0  0
    3.1565   -0.4050    0.0000 H   0  0  0  0  0  0  0  0  0  0  0  0
    4.0074    1.0538    0.0000 H   0  0  0  0  0  0  0  0  0  0  0  0
    3.6223    1.7517    0.0000 H   0  0  0  0  0  0  0  0  0  0  0  0
    2.0000    1.3902    0.0000 H   0  0  0  0  0  0  0  0  0  0  0  0
    2.0312    3.0099    0.0000 H   0  0  0  0  0  0  0  0  0  0  0  0
    3.6384    2.5863    0.0000 H   0  0  0  0  0  0  0  0  0  0  0  0
    4.0501    3.2687    0.0000 H   0  0  0  0  0  0  0  0  0  0  0  0
    3.2561    4.7593    0.0000 H   0  0  0  0  0  0  0  0  0  0  0  0
    2.8443    4.0768    0.0000 H   0  0  0  0  0  0  0  0  0  0  0  0
    4.5331    4.0693    0.0000 H   0  0  0  0  0  0  0  0  0  0  0  0
    4.9449    4.7518    0.0000 H   0  0  0  0  0  0  0  0  0  0  0  0
    4.1508    6.2423    0.0000 H   0  0  0  0  0  0  0  0  0  0  0  0
    3.7391    5.5598    0.0000 H   0  0  0  0  0  0  0  0  0  0  0  0
    5.4279    5.5524    0.0000 H   0  0  0  0  0  0  0  0  0  0  0  0
    5.8397    6.2348    0.0000 H   0  0  0  0  0  0  0  0  0  0  0  0
    5.0456    7.7253    0.0000 H   0  0  0  0  0  0  0  0  0  0  0  0
    4.6338    7.0429    0.0000 H   0  0  0  0  0  0  0  0  0  0  0  0
    6.3227    7.0354    0.0000 H   0  0  0  0  0  0  0  0  0  0  0  0
    6.7344    7.7178    0.0000 H   0  0  0  0  0  0  0  0  0  0  0  0
    6.7610    8.6098    0.0000 H   0  0  0  0  0  0  0  0  0  0  0  0
    6.1531    9.2417    0.0000 H   0  0  0  0  0  0  0  0  0  0  0  0
    5.5213    8.6337    0.0000 H   0  0  0  0  0  0  0  0  0  0  0  0
  1 17  1  0  0  0  0
  1 27  1  0  0  0  0
 23  2  1  6  0  0  0
  2 83  1  0  0  0  0
  3 27  2  0  0  0  0
  4  5  1  0  0  0  0
  4  8  1  0  0  0  0
  4 10  1  0  0  0  0
  4 15  1  1  0  0  0
  5  6  1  0  0  0  0
  5 11  1  0  0  0  0
  5 51  1  6  0  0  0
  6  7  1  0  0  0  0
  6 14  1  0  0  0  0
  6 52  1  1  0  0  0
  7  9  1  0  0  0  0
  7 12  1  0  0  0  0
  7 53  1  6  0  0  0
  8 13  1  0  0  0  0
  8 18  1  0  0  0  0
  8 54  1  6  0  0  0
  9 16  1  0  0  0  0
  9 17  1  0  0  0  0
  9 20  1  1  0  0  0
 10 12  1  0  0  0  0
 10 55  1  0  0  0  0
 10 56  1  0  0  0  0
 11 13  1  0  0  0  0
 11 57  1  0  0  0  0
 11 58  1  0  0  0  0
 12 59  1  0  0  0  0
 12 60  1  0  0  0  0
 13 61  1  0  0  0  0
 13 62  1  0  0  0  0
 14 19  1  0  0  0  0
 14 63  1  0  0  0  0
 14 64  1  0  0  0  0
 15 65  1  0  0  0  0
 15 66  1  0  0  0  0
 15 67  1  0  0  0  0
 16 19  2  0  0  0  0
 16 21  1  0  0  0  0
 17 22  1  0  0  0  0
 17 68  1  0  0  0  0
 18 24  1  6  0  0  0
 18 25  1  0  0  0  0
 18 69  1  0  0  0  0
 19 70  1  0  0  0  0
 20 71  1  0  0  0  0
 20 72  1  0  0  0  0
 20 73  1  0  0  0  0
 21 23  1  0  0  0  0
 21 74  1  0  0  0  0
 21 75  1  0  0  0  0
 22 23  1  0  0  0  0
 22 76  1  0  0  0  0
 22 77  1  0  0  0  0
 23 78  1  0  0  0  0
 24 79  1  0  0  0  0
 24 80  1  0  0  0  0
 24 81  1  0  0  0  0
 25 26  2  0  0  0  0
 25 82  1  0  0  0  0
 26 28  1  0  0  0  0
 26 84  1  0  0  0  0
 27 29  1  0  0  0  0
 28 30  1  0  0  0  0
 28 31  1  1  0  0  0
 28 85  1  0  0  0  0
 29 32  1  0  0  0  0
 29 86  1  0  0  0  0
 29 87  1  0  0  0  0
 30 33  1  0  0  0  0
 30 34  1  0  0  0  0
 30 88  1  0  0  0  0
 31 35  1  0  0  0  0
 31 89  1  0  0  0  0
 31 90  1  0  0  0  0
 32 36  1  0  0  0  0
 32 91  1  0  0  0  0
 32 92  1  0  0  0  0
 33 93  1  0  0  0  0
 33 94  1  0  0  0  0
 33 95  1  0  0  0  0
 34 96  1  0  0  0  0
 34 97  1  0  0  0  0
 34 98  1  0  0  0  0
 35 99  1  0  0  0  0
 35100  1  0  0  0  0
 35101  1  0  0  0  0
 36 37  1  0  0  0  0
 36102  1  0  0  0  0
 36103  1  0  0  0  0
 37 38  1  0  0  0  0
 37104  1  0  0  0  0
 37105  1  0  0  0  0
 38 39  1  0  0  0  0
 38106  1  0  0  0  0
 38107  1  0  0  0  0
 39 40  1  0  0  0  0
 39108  1  0  0  0  0
 39109  1  0  0  0  0
 40 41  1  0  0  0  0
 40110  1  0  0  0  0
 40111  1  0  0  0  0
 41 42  2  0  0  0  0
 41112  1  0  0  0  0
 42 43  1  0  0  0  0
 42113  1  0  0  0  0
 43 44  1  0  0  0  0
 43114  1  0  0  0  0
 43115  1  0  0  0  0
 44 45  1  0  0  0  0
 44116  1  0  0  0  0
 44117  1  0  0  0  0
 45 46  1  0  0  0  0
 45118  1  0  0  0  0
 45119  1  0  0  0  0
 46 47  1  0  0  0  0
 46120  1  0  0  0  0
 46121  1  0  0  0  0
 47 48  1  0  0  0  0
 47122  1  0  0  0  0
 47123  1  0  0  0  0
 48 49  1  0  0  0  0
 48124  1  0  0  0  0
 48125  1  0  0  0  0
 49 50  1  0  0  0  0
 49126  1  0  0  0  0
 49127  1  0  0  0  0
 50128  1  0  0  0  0
 50129  1  0  0  0  0
 50130  1  0  0  0  0
M  END
> <PUBCHEM_COMPOUND_CID>
129727163

> <PUBCHEM_COMPOUND_CANONICALIZED>
1

> <PUBCHEM_CACTVS_COMPLEXITY>
1100

> <PUBCHEM_CACTVS_HBOND_ACCEPTOR>
3

> <PUBCHEM_CACTVS_HBOND_DONOR>
1

> <PUBCHEM_CACTVS_ROTATABLE_BOND>
22

> <PUBCHEM_CACTVS_SUBSKEYS>
AAADcfB8MAAAAAAAAAAAAAAAAAAAAYAAAAAwYIAAAAAAAGCAAAAAGgAACAAADxSggAICCAAABgCIAiDSCAAAAAAgAAAICAEAAAgAEBIAAQACQAAFwAAIAAOI6PyPgAAAAAAAAADAAAQQADAAAQAACAAAAA==

> <PUBCHEM_IUPAC_OPENEYE_NAME>
[(3S,8S,9S,10R,13R,14S,17R)-17-[(E,1R,4R)-4-ethyl-1,5-dimethyl-hex-2-enyl]-3-hydroxy-10,13-dimethyl-2,3,4,7,8,9,11,12,14,15,16,17-dodecahydro-1H-cyclopenta[a]phenanthren-1-yl] (Z)-octadec-9-enoate

> <PUBCHEM_IUPAC_CAS_NAME>
(Z)-9-octadecenoic acid [(3S,8S,9S,10R,13R,14S,17R)-17-[(E,2R,5R)-5-ethyl-6-methylhept-3-en-2-yl]-3-hydroxy-10,13-dimethyl-2,3,4,7,8,9,11,12,14,15,16,17-dodecahydro-1H-cyclopenta[a]phenanthren-1-yl] ester

> <PUBCHEM_IUPAC_NAME_MARKUP>
[(3<I>S</I>,8<I>S</I>,9<I>S</I>,10<I>R</I>,13<I>R</I>,14<I>S</I>,17<I>R</I>)-17-[(<I>E</I>,2<I>R</I>,5<I>R</I>)-5-ethyl-6-methylhept-3-en-2-yl]-3-hydroxy-10,13-dimethyl-2,3,4,7,8,9,11,12,14,15,16,17-dodecahydro-1<I>H</I>-cyclopenta[a]phenanthren-1-yl] (<I>Z</I>)-octadec-9-enoate

> <PUBCHEM_IUPAC_NAME>
[(3S,8S,9S,10R,13R,14S,17R)-17-[(E,2R,5R)-5-ethyl-6-methylhept-3-en-2-yl]-3-hydroxy-10,13-dimethyl-2,3,4,7,8,9,11,12,14,15,16,17-dodecahydro-1H-cyclopenta[a]phenanthren-1-yl] (Z)-octadec-9-enoate

> <PUBCHEM_IUPAC_SYSTEMATIC_NAME>
[(3S,8S,9S,10R,13R,14S,17R)-17-[(E,2R,5R)-5-ethyl-6-methyl-hept-3-en-2-yl]-10,13-dimethyl-3-oxidanyl-2,3,4,7,8,9,11,12,14,15,16,17-dodecahydro-1H-cyclopenta[a]phenanthren-1-yl] (Z)-octadec-9-enoate

> <PUBCHEM_IUPAC_TRADITIONAL_NAME>
(Z)-octadec-9-enoic acid [(3S,8S,9S,10R,13R,14S,17R)-17-[(E,1R,4R)-4-ethyl-1,5-dimethyl-hex-2-enyl]-3-hydroxy-10,13-dimethyl-2,3,4,7,8,9,11,12,14,15,16,17-dodecahydro-1H-cyclopenta[a]phenanthren-1-yl] ester

> <PUBCHEM_IUPAC_INCHI>
InChI=1S/C47H80O3/c1-8-10-11-12-13-14-15-16-17-18-19-20-21-22-23-24-45(49)50-44-34-39(48)33-38-27-28-40-42-30-29-41(36(5)25-26-37(9-2)35(3)4)46(42,6)32-31-43(40)47(38,44)7/h16-17,25-27,35-37,39-44,48H,8-15,18-24,28-34H2,1-7H3/b17-16-,26-25+/t36-,37+,39+,40+,41-,42+,43+,44?,46-,47+/m1/s1

> <PUBCHEM_IUPAC_INCHIKEY>
KZHHCRVCEHEVBR-JEABXJSDSA-N

> <PUBCHEM_XLOGP3_AA>
15.6

> <PUBCHEM_EXACT_MASS>
692.610746

> <PUBCHEM_MOLECULAR_FORMULA>
C47H80O3

> <PUBCHEM_MOLECULAR_WEIGHT>
693.1

> <PUBCHEM_OPENEYE_CAN_SMILES>
CCCCCCCCC=CCCCCCCCC(=O)OC1CC(CC2=CCC3C4CCC(C4(CCC3C12C)C)C(C)C=CC(CC)C(C)C)O

> <PUBCHEM_OPENEYE_ISO_SMILES>
CCCCCCCC/C=C\CCCCCCCC(=O)OC1C[C@H](CC2=CC[C@H]3[C@@H]4CC[C@@H]([C@]4(CC[C@@H]3[C@@]12C)C)[C@H](C)/C=C/[C@H](CC)C(C)C)O

> <PUBCHEM_CACTVS_TPSA>
46.5

> <PUBCHEM_MONOISOTOPIC_WEIGHT>
692.610746

> <PUBCHEM_TOTAL_CHARGE>
0

> <PUBCHEM_HEAVY_ATOM_COUNT>
50

> <PUBCHEM_ATOM_DEF_STEREO_COUNT>
9

> <PUBCHEM_ATOM_UDEF_STEREO_COUNT>
1

> <PUBCHEM_BOND_DEF_STEREO_COUNT>
2

> <PUBCHEM_BOND_UDEF_STEREO_COUNT>
0

> <PUBCHEM_ISOTOPIC_ATOM_COUNT>
0

> <PUBCHEM_COMPONENT_COUNT>
1

> <PUBCHEM_CACTVS_TAUTO_COUNT>
-1

> <PUBCHEM_COORDINATE_TYPE>
1
5
255

> <PUBCHEM_BONDANNOTATIONS>
17  1  3
18  24  6
23  2  6
28  31  5
4  15  5
5  51  6
6  52  5
7  53  6
8  54  6
9  20  5

$$$$
