146036993
  -OEChem-09302015192D

 68 72  0     1  0  0  0  0  0999 V2000
    6.3301   -1.8729    0.0000 O   0  0  0  0  0  0  0  0  0  0  0  0
    5.4641   -3.3729    0.0000 O   0  0  0  0  0  0  0  0  0  0  0  0
    4.5981    0.1271    0.0000 O   0  0  0  0  0  0  0  0  0  0  0  0
    6.3301    0.1271    0.0000 O   0  0  0  0  0  0  0  0  0  0  0  0
    4.5981   -2.8729    0.0000 O   0  0  0  0  0  0  0  0  0  0  0  0
    8.0622   -2.8729    0.0000 O   0  0  0  0  0  0  0  0  0  0  0  0
    2.8660   -1.8729    0.0000 O   0  0  0  0  0  0  0  0  0  0  0  0
    8.0622   -4.8729    0.0000 O   0  0  0  0  0  0  0  0  0  0  0  0
    6.3301   -5.8729    0.0000 O   0  0  0  0  0  0  0  0  0  0  0  0
    2.0000   -0.3729    0.0000 O   0  5  0  0  0  0  0  0  0  0  0  0
    2.8660    1.1271    0.0000 O   0  0  0  0  0  0  0  0  0  0  0  0
    4.5981   -5.8729    0.0000 O   0  5  0  0  0  0  0  0  0  0  0  0
    3.7320   -4.3729    0.0000 O   0  0  0  0  0  0  0  0  0  0  0  0
    8.0861    3.1896    0.0000 O   0  0  0  0  0  0  0  0  0  0  0  0
    4.5839    3.2062    0.0000 O   0  0  0  0  0  0  0  0  0  0  0  0
    5.4938    4.6996    0.0000 O   0  0  0  0  0  0  0  0  0  0  0  0
   11.5540    4.1762    0.0000 O   0  0  0  0  0  0  0  0  0  0  0  0
   11.5617    6.1762    0.0000 O   0  4  0  0  0  0  0  0  0  0  0  0
    5.4641   -1.3729    0.0000 C   0  0  2  0  0  0  0  0  0  0  0  0
    4.5981   -1.8729    0.0000 C   0  0  2  0  0  0  0  0  0  0  0  0
    6.3301   -2.8729    0.0000 C   0  0  2  0  0  0  0  0  0  0  0  0
    7.1962   -3.3729    0.0000 C   0  0  1  0  0  0  0  0  0  0  0  0
    3.7320   -1.3729    0.0000 C   0  0  1  0  0  0  0  0  0  0  0  0
    5.4641   -0.3729    0.0000 C   0  0  3  0  0  0  0  0  0  0  0  0
    7.1962   -4.3729    0.0000 C   0  0  2  0  0  0  0  0  0  0  0  0
    6.3301   -4.8729    0.0000 C   0  0  1  0  0  0  0  0  0  0  0  0
    3.7320   -0.3729    0.0000 C   0  0  1  0  0  0  0  0  0  0  0  0
    5.4641   -4.3729    0.0000 C   0  0  1  0  0  0  0  0  0  0  0  0
    2.8660    0.1271    0.0000 C   0  0  0  0  0  0  0  0  0  0  0  0
    4.5981   -4.8729    0.0000 C   0  0  0  0  0  0  0  0  0  0  0  0
    6.3301    1.1271    0.0000 C   0  0  0  0  0  0  0  0  0  0  0  0
    7.2302    1.6514    0.0000 C   0  0  0  0  0  0  0  0  0  0  0  0
    5.4301    1.6514    0.0000 C   0  0  0  0  0  0  0  0  0  0  0  0
    7.2182    2.6930    0.0000 C   0  0  0  0  0  0  0  0  0  0  0  0
    5.4421    2.6930    0.0000 C   0  0  0  0  0  0  0  0  0  0  0  0
    6.3541    3.1963    0.0000 C   0  0  0  0  0  0  0  0  0  0  0  0
    6.3579    4.1963    0.0000 C   0  0  0  0  0  0  0  0  0  0  0  0
    8.0900    4.1896    0.0000 C   0  0  0  0  0  0  0  0  0  0  0  0
    7.2259    4.6929    0.0000 C   0  0  0  0  0  0  0  0  0  0  0  0
    8.9579    4.6862    0.0000 C   0  0  0  0  0  0  0  0  0  0  0  0
    9.8220    4.1829    0.0000 C   0  0  0  0  0  0  0  0  0  0  0  0
    8.9618    5.6862    0.0000 C   0  0  0  0  0  0  0  0  0  0  0  0
   10.6899    4.6796    0.0000 C   0  0  0  0  0  0  0  0  0  0  0  0
    9.8297    6.1829    0.0000 C   0  0  0  0  0  0  0  0  0  0  0  0
   10.6938    5.6796    0.0000 C   0  0  0  0  0  0  0  0  0  0  0  0
    5.4641   -1.9929    0.0000 H   0  0  0  0  0  0  0  0  0  0  0  0
    4.0611   -2.1829    0.0000 H   0  0  0  0  0  0  0  0  0  0  0  0
    6.8671   -2.5629    0.0000 H   0  0  0  0  0  0  0  0  0  0  0  0
    7.7331   -3.6829    0.0000 H   0  0  0  0  0  0  0  0  0  0  0  0
    3.1951   -1.0629    0.0000 H   0  0  0  0  0  0  0  0  0  0  0  0
    5.4641    0.2471    0.0000 H   0  0  0  0  0  0  0  0  0  0  0  0
    7.1962   -4.9929    0.0000 H   0  0  0  0  0  0  0  0  0  0  0  0
    5.7932   -5.1829    0.0000 H   0  0  0  0  0  0  0  0  0  0  0  0
    3.7320    0.2471    0.0000 H   0  0  0  0  0  0  0  0  0  0  0  0
    4.9272   -4.0629    0.0000 H   0  0  0  0  0  0  0  0  0  0  0  0
    4.0611   -3.1829    0.0000 H   0  0  0  0  0  0  0  0  0  0  0  0
    8.5991   -3.1829    0.0000 H   0  0  0  0  0  0  0  0  0  0  0  0
    2.8660   -2.4929    0.0000 H   0  0  0  0  0  0  0  0  0  0  0  0
    8.5991   -4.5629    0.0000 H   0  0  0  0  0  0  0  0  0  0  0  0
    6.8671   -6.1829    0.0000 H   0  0  0  0  0  0  0  0  0  0  0  0
    7.7695    1.3455    0.0000 H   0  0  0  0  0  0  0  0  0  0  0  0
    4.8908    1.3455    0.0000 H   0  0  0  0  0  0  0  0  0  0  0  0
    7.2282    5.3129    0.0000 H   0  0  0  0  0  0  0  0  0  0  0  0
    4.0422    2.9046    0.0000 H   0  0  0  0  0  0  0  0  0  0  0  0
    9.8196    3.5629    0.0000 H   0  0  0  0  0  0  0  0  0  0  0  0
    8.4260    5.9983    0.0000 H   0  0  0  0  0  0  0  0  0  0  0  0
    9.8321    6.8029    0.0000 H   0  0  0  0  0  0  0  0  0  0  0  0
   12.0922    4.4842    0.0000 H   0  0  0  0  0  0  0  0  0  0  0  0
 19  1  1  6  0  0  0
 21  1  1  1  0  0  0
  2 21  1  0  0  0  0
  2 28  1  0  0  0  0
  3 24  1  0  0  0  0
  3 27  1  0  0  0  0
  4 24  1  0  0  0  0
  4 31  1  0  0  0  0
 20  5  1  1  0  0  0
  5 56  1  0  0  0  0
 22  6  1  6  0  0  0
  6 57  1  0  0  0  0
 23  7  1  6  0  0  0
  7 58  1  0  0  0  0
 25  8  1  1  0  0  0
  8 59  1  0  0  0  0
 26  9  1  6  0  0  0
  9 60  1  0  0  0  0
 10 29  1  0  0  0  0
 11 29  2  0  0  0  0
 12 30  1  0  0  0  0
 13 30  2  0  0  0  0
 14 34  1  0  0  0  0
 14 38  1  0  0  0  0
 15 35  1  0  0  0  0
 15 64  1  0  0  0  0
 16 37  2  0  0  0  0
 17 43  1  0  0  0  0
 17 68  1  0  0  0  0
 18 45  1  0  0  0  0
 19 20  1  0  0  0  0
 19 24  1  0  0  0  0
 19 46  1  0  0  0  0
 20 23  1  0  0  0  0
 20 47  1  0  0  0  0
 21 22  1  0  0  0  0
 21 48  1  0  0  0  0
 22 25  1  0  0  0  0
 22 49  1  0  0  0  0
 23 27  1  0  0  0  0
 23 50  1  0  0  0  0
 24 51  1  0  0  0  0
 25 26  1  0  0  0  0
 25 52  1  0  0  0  0
 26 28  1  0  0  0  0
 26 53  1  0  0  0  0
 27 29  1  1  0  0  0
 27 54  1  0  0  0  0
 28 30  1  1  0  0  0
 28 55  1  0  0  0  0
 31 32  1  0  0  0  0
 31 33  2  0  0  0  0
 32 34  2  0  0  0  0
 32 61  1  0  0  0  0
 33 35  1  0  0  0  0
 33 62  1  0  0  0  0
 34 36  1  0  0  0  0
 35 36  2  0  0  0  0
 36 37  1  0  0  0  0
 37 39  1  0  0  0  0
 38 39  2  0  0  0  0
 38 40  1  0  0  0  0
 39 63  1  0  0  0  0
 40 41  2  0  0  0  0
 40 42  1  0  0  0  0
 41 43  1  0  0  0  0
 41 65  1  0  0  0  0
 42 44  2  0  0  0  0
 42 66  1  0  0  0  0
 43 45  2  0  0  0  0
 44 45  1  0  0  0  0
 44 67  1  0  0  0  0
M  CHG  2  10  -1  12  -1
M  RAD  1  18   2
M  END
> <PUBCHEM_COMPOUND_CID>
146036993

> <PUBCHEM_COMPOUND_CANONICALIZED>
1

> <PUBCHEM_CACTVS_COMPLEXITY>
1140

> <PUBCHEM_CACTVS_HBOND_ACCEPTOR>
17

> <PUBCHEM_CACTVS_HBOND_DONOR>
7

> <PUBCHEM_CACTVS_ROTATABLE_BOND>
5

> <PUBCHEM_CACTVS_SUBSKEYS>
AAADceB4PgAAAAAAAAAAAAAAAAAAAAAAAAA0aIECAAAAAACBQAAAGgAACAAADBSwmAMwDoAABgCIAqDSCAICCAAkIAAIiAFGiMgdNzaGNR6ieWGl4BUPuQfK7LzOIAABCAAIQABAAAIQABCAAAAAAAAAAA==

> <PUBCHEM_IUPAC_INCHI>
InChI=1S/C27H25O18/c28-9-2-1-7(3-10(9)29)13-6-12(31)15-11(30)4-8(5-14(15)42-13)41-27-23(19(35)18(34)22(44-27)25(39)40)45-26-20(36)16(32)17(33)21(43-26)24(37)38/h1-6,16-23,26-27,29-30,32-36H,(H,37,38)(H,39,40)/p-2/t16-,17-,18-,19-,20+,21-,22-,23+,26-,27?/m0/s1

> <PUBCHEM_IUPAC_INCHIKEY>
GBZWMUPVORAWBY-HBUFFLJYSA-L

> <PUBCHEM_XLOGP3_AA>
0.7

> <PUBCHEM_EXACT_MASS>
635.088439

> <PUBCHEM_MOLECULAR_FORMULA>
C27H23O18-2

> <PUBCHEM_MOLECULAR_WEIGHT>
635.5

> <PUBCHEM_OPENEYE_CAN_SMILES>
C1=CC(=C(C=C1C2=CC(=O)C3=C(C=C(C=C3O2)OC4C(C(C(C(O4)C(=O)[O-])O)O)OC5C(C(C(C(O5)C(=O)[O-])O)O)O)O)O)[O]

> <PUBCHEM_OPENEYE_ISO_SMILES>
C1=CC(=C(C=C1C2=CC(=O)C3=C(C=C(C=C3O2)OC4[C@@H]([C@H]([C@@H]([C@H](O4)C(=O)[O-])O)O)O[C@H]5[C@@H]([C@H]([C@@H]([C@H](O5)C(=O)[O-])O)O)O)O)O)[O]

> <PUBCHEM_CACTVS_TPSA>
286

> <PUBCHEM_MONOISOTOPIC_WEIGHT>
635.088439

> <PUBCHEM_TOTAL_CHARGE>
-2

> <PUBCHEM_HEAVY_ATOM_COUNT>
45

> <PUBCHEM_ATOM_DEF_STEREO_COUNT>
9

> <PUBCHEM_ATOM_UDEF_STEREO_COUNT>
1

> <PUBCHEM_BOND_DEF_STEREO_COUNT>
0

> <PUBCHEM_BOND_UDEF_STEREO_COUNT>
0

> <PUBCHEM_ISOTOPIC_ATOM_COUNT>
0

> <PUBCHEM_COMPONENT_COUNT>
1

> <PUBCHEM_CACTVS_TAUTO_COUNT>
-1

> <PUBCHEM_COORDINATE_TYPE>
1
5
255

> <PUBCHEM_BONDANNOTATIONS>
19  1  6
21  1  5
14  34  8
14  38  8
27  29  5
28  30  5
31  32  8
31  33  8
32  34  8
33  35  8
34  36  8
35  36  8
36  37  8
37  39  8
38  39  8
24  4  3
40  41  8
40  42  8
41  43  8
42  44  8
43  45  8
44  45  8
20  5  5
22  6  6
23  7  6
25  8  5
26  9  6

$$$$
