11693219
  -OEChem-09122014022D

 82 84  0     1  0  0  0  0  0999 V2000
    9.7942   -0.0560    0.0000 O   0  0  0  0  0  0  0  0  0  0  0  0
   11.5263    0.9440    0.0000 O   0  0  0  0  0  0  0  0  0  0  0  0
    8.0622    0.9440    0.0000 O   0  0  0  0  0  0  0  0  0  0  0  0
    9.2942    3.8100    0.0000 O   0  0  0  0  0  0  0  0  0  0  0  0
   11.2942    3.8100    0.0000 O   0  0  0  0  0  0  0  0  0  0  0  0
    9.7942    4.6760    0.0000 O   0  0  0  0  0  0  0  0  0  0  0  0
    8.0622   -0.0560    0.0000 O   0  0  0  0  0  0  0  0  0  0  0  0
    8.5622   -2.9220    0.0000 O   0  0  0  0  0  0  0  0  0  0  0  0
   12.3923    2.4440    0.0000 O   0  0  0  0  0  0  0  0  0  0  0  0
    7.1962    2.4440    0.0000 O   0  0  0  0  0  0  0  0  0  0  0  0
    6.3301   -4.0560    0.0000 O   0  0  0  0  0  0  0  0  0  0  0  0
    8.0622   -4.0560    0.0000 O   0  0  0  0  0  0  0  0  0  0  0  0
   15.8564   -1.5560    0.0000 O   0  0  0  0  0  0  0  0  0  0  0  0
    2.0000    1.4440    0.0000 O   0  0  0  0  0  0  0  0  0  0  0  0
   17.5885   -0.5560    0.0000 O   0  0  0  0  0  0  0  0  0  0  0  0
    2.0000   -0.5560    0.0000 O   0  0  0  0  0  0  0  0  0  0  0  0
    9.7942    2.9440    0.0000 C   0  0  0  0  0  0  0  0  0  0  0  0
    9.7942    0.9440    0.0000 C   0  0  0  0  0  0  0  0  0  0  0  0
   10.6603    1.4440    0.0000 C   0  0  1  0  0  0  0  0  0  0  0  0
    8.9282    1.4440    0.0000 C   0  0  1  0  0  0  0  0  0  0  0  0
   10.6603    2.4440    0.0000 C   0  0  0  0  0  0  0  0  0  0  0  0
    8.9282    2.4440    0.0000 C   0  0  0  0  0  0  0  0  0  0  0  0
   10.2942    3.8100    0.0000 C   0  0  0  0  0  0  0  0  0  0  0  0
    8.9282   -0.5560    0.0000 C   0  0  0  0  0  0  0  0  0  0  0  0
    8.9282   -1.5560    0.0000 C   0  0  0  0  0  0  0  0  0  0  0  0
   12.3923    1.4440    0.0000 C   0  0  0  0  0  0  0  0  0  0  0  0
    7.1962    1.4440    0.0000 C   0  0  0  0  0  0  0  0  0  0  0  0
    8.0622   -2.0560    0.0000 C   0  0  3  0  0  0  0  0  0  0  0  0
    7.1962   -2.5560    0.0000 C   0  0  0  0  0  0  0  0  0  0  0  0
   11.7942    4.6760    0.0000 C   0  0  0  0  0  0  0  0  0  0  0  0
    7.5622   -1.1900    0.0000 C   0  0  0  0  0  0  0  0  0  0  0  0
   13.2583    0.9440    0.0000 C   0  0  0  0  0  0  0  0  0  0  0  0
    6.3301    0.9440    0.0000 C   0  0  0  0  0  0  0  0  0  0  0  0
    7.1962   -3.5560    0.0000 C   0  0  0  0  0  0  0  0  0  0  0  0
   14.1244    1.4440    0.0000 C   0  0  0  0  0  0  0  0  0  0  0  0
    5.4641    1.4440    0.0000 C   0  0  0  0  0  0  0  0  0  0  0  0
   14.9904    0.9440    0.0000 C   0  0  0  0  0  0  0  0  0  0  0  0
    4.5981    0.9440    0.0000 C   0  0  0  0  0  0  0  0  0  0  0  0
   14.9904   -0.0560    0.0000 C   0  0  0  0  0  0  0  0  0  0  0  0
    3.7320    1.4440    0.0000 C   0  0  0  0  0  0  0  0  0  0  0  0
   15.8564    1.4440    0.0000 C   0  0  0  0  0  0  0  0  0  0  0  0
    4.5981   -0.0560    0.0000 C   0  0  0  0  0  0  0  0  0  0  0  0
   15.8564   -0.5560    0.0000 C   0  0  0  0  0  0  0  0  0  0  0  0
    2.8660    0.9440    0.0000 C   0  0  0  0  0  0  0  0  0  0  0  0
   16.7224    0.9440    0.0000 C   0  0  0  0  0  0  0  0  0  0  0  0
    3.7320   -0.5560    0.0000 C   0  0  0  0  0  0  0  0  0  0  0  0
   16.7224   -0.0560    0.0000 C   0  0  0  0  0  0  0  0  0  0  0  0
    2.8660   -0.0560    0.0000 C   0  0  0  0  0  0  0  0  0  0  0  0
    9.2573    0.6340    0.0000 H   0  0  0  0  0  0  0  0  0  0  0  0
   11.1972    1.7540    0.0000 H   0  0  0  0  0  0  0  0  0  0  0  0
    8.3913    1.7540    0.0000 H   0  0  0  0  0  0  0  0  0  0  0  0
   11.2708    2.3363    0.0000 H   0  0  0  0  0  0  0  0  0  0  0  0
   10.8723    3.0266    0.0000 H   0  0  0  0  0  0  0  0  0  0  0  0
    8.7162    3.0266    0.0000 H   0  0  0  0  0  0  0  0  0  0  0  0
    8.3176    2.3363    0.0000 H   0  0  0  0  0  0  0  0  0  0  0  0
    8.6742    3.8100    0.0000 H   0  0  0  0  0  0  0  0  0  0  0  0
    9.1403   -2.1386    0.0000 H   0  0  0  0  0  0  0  0  0  0  0  0
    9.5388   -1.4484    0.0000 H   0  0  0  0  0  0  0  0  0  0  0  0
    6.9841   -1.9734    0.0000 H   0  0  0  0  0  0  0  0  0  0  0  0
    6.5856   -2.6637    0.0000 H   0  0  0  0  0  0  0  0  0  0  0  0
   12.3312    4.3660    0.0000 H   0  0  0  0  0  0  0  0  0  0  0  0
   12.1042    5.2130    0.0000 H   0  0  0  0  0  0  0  0  0  0  0  0
   11.2573    4.9860    0.0000 H   0  0  0  0  0  0  0  0  0  0  0  0
    8.0991   -0.8800    0.0000 H   0  0  0  0  0  0  0  0  0  0  0  0
    7.2522   -0.6531    0.0000 H   0  0  0  0  0  0  0  0  0  0  0  0
    7.0252   -1.5000    0.0000 H   0  0  0  0  0  0  0  0  0  0  0  0
   13.2583    0.3240    0.0000 H   0  0  0  0  0  0  0  0  0  0  0  0
    6.3301    0.3240    0.0000 H   0  0  0  0  0  0  0  0  0  0  0  0
    9.1822   -2.9220    0.0000 H   0  0  0  0  0  0  0  0  0  0  0  0
   14.1244    2.0640    0.0000 H   0  0  0  0  0  0  0  0  0  0  0  0
    5.4641    2.0640    0.0000 H   0  0  0  0  0  0  0  0  0  0  0  0
    6.3301   -4.6760    0.0000 H   0  0  0  0  0  0  0  0  0  0  0  0
   14.4534   -0.3660    0.0000 H   0  0  0  0  0  0  0  0  0  0  0  0
    3.7320    2.0640    0.0000 H   0  0  0  0  0  0  0  0  0  0  0  0
   15.8564    2.0640    0.0000 H   0  0  0  0  0  0  0  0  0  0  0  0
    5.1350   -0.3660    0.0000 H   0  0  0  0  0  0  0  0  0  0  0  0
   17.2594    1.2540    0.0000 H   0  0  0  0  0  0  0  0  0  0  0  0
    3.7320   -1.1760    0.0000 H   0  0  0  0  0  0  0  0  0  0  0  0
   16.3933   -1.8660    0.0000 H   0  0  0  0  0  0  0  0  0  0  0  0
    2.0000    2.0640    0.0000 H   0  0  0  0  0  0  0  0  0  0  0  0
   18.1254   -0.2460    0.0000 H   0  0  0  0  0  0  0  0  0  0  0  0
    2.0000   -1.1760    0.0000 H   0  0  0  0  0  0  0  0  0  0  0  0
  1 18  1  0  0  0  0
  1 24  1  0  0  0  0
 19  2  1  1  0  0  0
  2 26  1  0  0  0  0
 20  3  1  6  0  0  0
  3 27  1  0  0  0  0
  4 17  1  0  0  0  0
  4 56  1  0  0  0  0
  5 23  1  0  0  0  0
  5 30  1  0  0  0  0
  6 23  2  0  0  0  0
  7 24  2  0  0  0  0
  8 28  1  0  0  0  0
  8 69  1  0  0  0  0
  9 26  2  0  0  0  0
 10 27  2  0  0  0  0
 11 34  1  0  0  0  0
 11 72  1  0  0  0  0
 12 34  2  0  0  0  0
 13 43  1  0  0  0  0
 13 79  1  0  0  0  0
 14 44  1  0  0  0  0
 14 80  1  0  0  0  0
 15 47  1  0  0  0  0
 15 81  1  0  0  0  0
 16 48  1  0  0  0  0
 16 82  1  0  0  0  0
 17 21  1  0  0  0  0
 17 22  1  0  0  0  0
 17 23  1  0  0  0  0
 18 19  1  0  0  0  0
 18 20  1  0  0  0  0
 18 49  1  0  0  0  0
 19 21  1  0  0  0  0
 19 50  1  0  0  0  0
 20 22  1  0  0  0  0
 20 51  1  0  0  0  0
 21 52  1  0  0  0  0
 21 53  1  0  0  0  0
 22 54  1  0  0  0  0
 22 55  1  0  0  0  0
 24 25  1  0  0  0  0
 25 28  1  0  0  0  0
 25 57  1  0  0  0  0
 25 58  1  0  0  0  0
 26 32  1  0  0  0  0
 27 33  1  0  0  0  0
 28 29  1  0  0  0  0
 28 31  1  0  0  0  0
 29 34  1  0  0  0  0
 29 59  1  0  0  0  0
 29 60  1  0  0  0  0
 30 61  1  0  0  0  0
 30 62  1  0  0  0  0
 30 63  1  0  0  0  0
 31 64  1  0  0  0  0
 31 65  1  0  0  0  0
 31 66  1  0  0  0  0
 32 35  2  0  0  0  0
 32 67  1  0  0  0  0
 33 36  2  0  0  0  0
 33 68  1  0  0  0  0
 35 37  1  0  0  0  0
 35 70  1  0  0  0  0
 36 38  1  0  0  0  0
 36 71  1  0  0  0  0
 37 39  2  0  0  0  0
 37 41  1  0  0  0  0
 38 40  2  0  0  0  0
 38 42  1  0  0  0  0
 39 43  1  0  0  0  0
 39 73  1  0  0  0  0
 40 44  1  0  0  0  0
 40 74  1  0  0  0  0
 41 45  2  0  0  0  0
 41 75  1  0  0  0  0
 42 46  2  0  0  0  0
 42 76  1  0  0  0  0
 43 47  2  0  0  0  0
 44 48  2  0  0  0  0
 45 47  1  0  0  0  0
 45 77  1  0  0  0  0
 46 48  1  0  0  0  0
 46 78  1  0  0  0  0
M  END
> <PUBCHEM_COMPOUND_CID>
11693219

> <PUBCHEM_COMPOUND_CANONICALIZED>
1

> <PUBCHEM_CACTVS_COMPLEXITY>
1170

> <PUBCHEM_CACTVS_HBOND_ACCEPTOR>
16

> <PUBCHEM_CACTVS_HBOND_DONOR>
7

> <PUBCHEM_CACTVS_ROTATABLE_BOND>
16

> <PUBCHEM_CACTVS_SUBSKEYS>
AAADcfB8PgAAAAAAAAAAAAAAAAAAAAAAAAAwYMAAAAAAAAABQAAAGgAACAAADFSgmAIyDoAABgCIAiDSCAICAAAgIAAIiAFGiMgJJjaCMRKCcAEl4BELuYfK7jzOIAABAAAAQABCAAIQAACAAAAAAAAAAA==

> <PUBCHEM_IUPAC_OPENEYE_NAME>
5-[(2R,6R)-2,6-bis[[(E)-3-(3,4-dihydroxyphenyl)prop-2-enoyl]oxy]-4-hydroxy-4-methoxycarbonyl-cyclohexoxy]-3-hydroxy-3-methyl-5-oxo-pentanoic acid

> <PUBCHEM_IUPAC_CAS_NAME>
5-[(2R,6R)-2,6-bis[(E)-3-(3,4-dihydroxyphenyl)-1-oxoprop-2-enoxy]-4-hydroxy-4-methoxycarbonylcyclohexyl]oxy-3-hydroxy-3-methyl-5-oxopentanoic acid

> <PUBCHEM_IUPAC_NAME_MARKUP>
5-[(2<I>R</I>,6<I>R</I>)-2,6-bis[[(<I>E</I>)-3-(3,4-dihydroxyphenyl)prop-2-enoyl]oxy]-4-hydroxy-4-methoxycarbonylcyclohexyl]oxy-3-hydroxy-3-methyl-5-oxopentanoic acid

> <PUBCHEM_IUPAC_NAME>
5-[(2R,6R)-2,6-bis[[(E)-3-(3,4-dihydroxyphenyl)prop-2-enoyl]oxy]-4-hydroxy-4-methoxycarbonylcyclohexyl]oxy-3-hydroxy-3-methyl-5-oxopentanoic acid

> <PUBCHEM_IUPAC_SYSTEMATIC_NAME>
5-[(2R,6R)-2,6-bis[[(E)-3-[3,4-bis(oxidanyl)phenyl]prop-2-enoyl]oxy]-4-methoxycarbonyl-4-oxidanyl-cyclohexyl]oxy-3-methyl-3-oxidanyl-5-oxidanylidene-pentanoic acid

> <PUBCHEM_IUPAC_TRADITIONAL_NAME>
5-[(2R,6R)-4-carbomethoxy-2,6-bis[[(E)-3-(3,4-dihydroxyphenyl)acryloyl]oxy]-4-hydroxy-cyclohexoxy]-3-hydroxy-5-keto-3-methyl-valeric acid

> <PUBCHEM_IUPAC_INCHI>
InChI=1S/C32H34O16/c1-31(43,15-25(37)38)16-28(41)48-29-23(46-26(39)9-5-17-3-7-19(33)21(35)11-17)13-32(44,30(42)45-2)14-24(29)47-27(40)10-6-18-4-8-20(34)22(36)12-18/h3-12,23-24,29,33-36,43-44H,13-16H2,1-2H3,(H,37,38)/b9-5+,10-6+/t23-,24-,29?,31?,32?/m1/s1

> <PUBCHEM_IUPAC_INCHIKEY>
DARYRELQFBVEME-OMYFTWPMSA-N

> <PUBCHEM_XLOGP3_AA>
1.4

> <PUBCHEM_EXACT_MASS>
674.184685

> <PUBCHEM_MOLECULAR_FORMULA>
C32H34O16

> <PUBCHEM_MOLECULAR_WEIGHT>
674.6

> <PUBCHEM_OPENEYE_CAN_SMILES>
CC(CC(=O)O)(CC(=O)OC1C(CC(CC1OC(=O)C=CC2=CC(=C(C=C2)O)O)(C(=O)OC)O)OC(=O)C=CC3=CC(=C(C=C3)O)O)O

> <PUBCHEM_OPENEYE_ISO_SMILES>
CC(O)(CC(=O)OC1[C@@H](CC(C[C@H]1OC(=O)/C=C/C2=CC(=C(C=C2)O)O)(O)C(=O)OC)OC(=O)/C=C/C3=CC(=C(C=C3)O)O)CC(=O)O

> <PUBCHEM_CACTVS_TPSA>
264

> <PUBCHEM_MONOISOTOPIC_WEIGHT>
674.184685

> <PUBCHEM_TOTAL_CHARGE>
0

> <PUBCHEM_HEAVY_ATOM_COUNT>
48

> <PUBCHEM_ATOM_DEF_STEREO_COUNT>
2

> <PUBCHEM_ATOM_UDEF_STEREO_COUNT>
1

> <PUBCHEM_BOND_DEF_STEREO_COUNT>
2

> <PUBCHEM_BOND_UDEF_STEREO_COUNT>
0

> <PUBCHEM_ISOTOPIC_ATOM_COUNT>
0

> <PUBCHEM_COMPONENT_COUNT>
1

> <PUBCHEM_CACTVS_TAUTO_COUNT>
-1

> <PUBCHEM_COORDINATE_TYPE>
1
5
255

> <PUBCHEM_BONDANNOTATIONS>
19  2  5
20  3  6
37  39  8
37  41  8
38  40  8
38  42  8
39  43  8
40  44  8
41  45  8
42  46  8
43  47  8
44  48  8
45  47  8
46  48  8
28  8  3

$$$$
