11968391
  -OEChem-10022009562D

 98101  0     1  0  0  0  0  0999 V2000
   11.9292   -1.1344    0.0000 O   0  0  0  0  0  0  0  0  0  0  0  0
   12.9292   -2.1344    0.0000 O   0  0  0  0  0  0  0  0  0  0  0  0
   11.1972   -2.1344    0.0000 O   0  0  0  0  0  0  0  0  0  0  0  0
   14.1893    0.1257    0.0000 O   0  0  0  0  0  0  0  0  0  0  0  0
   12.4292    1.4044    0.0000 O   0  0  0  0  0  0  0  0  0  0  0  0
   12.9292   -4.1344    0.0000 O   0  0  0  0  0  0  0  0  0  0  0  0
   11.1972   -5.1344    0.0000 O   0  0  0  0  0  0  0  0  0  0  0  0
   14.6234   -0.7743    0.0000 O   0  0  0  0  0  0  0  0  0  0  0  0
    9.4651   -4.1344    0.0000 O   0  0  0  0  0  0  0  0  0  0  0  0
   10.4613    1.1038    0.0000 O   0  0  0  0  0  0  0  0  0  0  0  0
    8.5991   -2.6344    0.0000 O   0  0  0  0  0  0  0  0  0  0  0  0
   13.6541    1.7729    0.0000 O   0  0  0  0  0  0  0  0  0  0  0  0
    7.7331   -1.1344    0.0000 O   0  0  0  0  0  0  0  0  0  0  0  0
   17.8741    4.9653    0.0000 O   0  0  0  0  0  0  0  0  0  0  0  0
   18.9446    1.6707    0.0000 O   0  0  0  0  0  0  0  0  0  0  0  0
   19.3604    3.6270    0.0000 O   0  0  0  0  0  0  0  0  0  0  0  0
    4.2690   -5.1344    0.0000 O   0  0  0  0  0  0  0  0  0  0  0  0
    2.5369   -2.1344    0.0000 O   0  0  0  0  0  0  0  0  0  0  0  0
    2.5369   -4.1344    0.0000 O   0  0  0  0  0  0  0  0  0  0  0  0
   12.9292   -1.1344    0.0000 C   0  0  1  0  0  0  0  0  0  0  0  0
   13.2383   -0.1834    0.0000 C   0  0  2  0  0  0  0  0  0  0  0  0
   12.4292    0.4044    0.0000 C   0  0  1  0  0  0  0  0  0  0  0  0
   11.6202   -0.1834    0.0000 C   0  0  1  0  0  0  0  0  0  0  0  0
   12.0632   -2.6344    0.0000 C   0  0  1  0  0  0  0  0  0  0  0  0
   12.0632   -3.6344    0.0000 C   0  0  1  0  0  0  0  0  0  0  0  0
   11.1972   -4.1344    0.0000 C   0  0  2  0  0  0  0  0  0  0  0  0
   13.8803   -1.4434    0.0000 C   0  0  0  0  0  0  0  0  0  0  0  0
   10.3312   -3.6344    0.0000 C   0  0  1  0  0  0  0  0  0  0  0  0
   10.3312   -2.6344    0.0000 C   0  0  1  0  0  0  0  0  0  0  0  0
   10.6692    0.1257    0.0000 C   0  0  0  0  0  0  0  0  0  0  0  0
    9.4651   -2.1344    0.0000 C   0  0  0  0  0  0  0  0  0  0  0  0
   14.3972    1.1038    0.0000 C   0  0  0  0  0  0  0  0  0  0  0  0
   15.3483    1.4128    0.0000 C   0  0  0  0  0  0  0  0  0  0  0  0
    7.7331   -2.1344    0.0000 C   0  0  0  0  0  0  0  0  0  0  0  0
   15.5562    2.3910    0.0000 C   0  0  0  0  0  0  0  0  0  0  0  0
    6.8671   -2.6344    0.0000 C   0  0  0  0  0  0  0  0  0  0  0  0
   16.5072    2.7000    0.0000 C   0  0  0  0  0  0  0  0  0  0  0  0
    6.0010   -2.1344    0.0000 C   0  0  0  0  0  0  0  0  0  0  0  0
   17.2504    2.0308    0.0000 C   0  0  0  0  0  0  0  0  0  0  0  0
   16.7152    3.6781    0.0000 C   0  0  0  0  0  0  0  0  0  0  0  0
    5.1350   -2.6344    0.0000 C   0  0  0  0  0  0  0  0  0  0  0  0
   17.6662    3.9871    0.0000 C   0  0  0  0  0  0  0  0  0  0  0  0
   18.2015    2.3399    0.0000 C   0  0  0  0  0  0  0  0  0  0  0  0
   18.4094    3.3180    0.0000 C   0  0  0  0  0  0  0  0  0  0  0  0
    4.2690   -2.1344    0.0000 C   0  0  0  0  0  0  0  0  0  0  0  0
    5.1350   -3.6344    0.0000 C   0  0  0  0  0  0  0  0  0  0  0  0
    4.2690   -4.1344    0.0000 C   0  0  0  0  0  0  0  0  0  0  0  0
    3.4030   -2.6344    0.0000 C   0  0  0  0  0  0  0  0  0  0  0  0
    3.4030   -3.6344    0.0000 C   0  0  0  0  0  0  0  0  0  0  0  0
   17.1310    5.6344    0.0000 C   0  0  0  0  0  0  0  0  0  0  0  0
   19.8957    1.9798    0.0000 C   0  0  0  0  0  0  0  0  0  0  0  0
   19.5683    4.6052    0.0000 C   0  0  0  0  0  0  0  0  0  0  0  0
    3.4030   -5.6344    0.0000 C   0  0  0  0  0  0  0  0  0  0  0  0
    2.5369   -1.1344    0.0000 C   0  0  0  0  0  0  0  0  0  0  0  0
   13.6767   -0.6218    0.0000 H   0  0  0  0  0  0  0  0  0  0  0  0
   11.8768    0.6859    0.0000 H   0  0  0  0  0  0  0  0  0  0  0  0
   11.1818   -0.6218    0.0000 H   0  0  0  0  0  0  0  0  0  0  0  0
   12.0632   -2.0144    0.0000 H   0  0  0  0  0  0  0  0  0  0  0  0
   12.0632   -4.2544    0.0000 H   0  0  0  0  0  0  0  0  0  0  0  0
   10.6603   -4.4444    0.0000 H   0  0  0  0  0  0  0  0  0  0  0  0
   13.5892   -1.9909    0.0000 H   0  0  0  0  0  0  0  0  0  0  0  0
   14.3689   -1.8252    0.0000 H   0  0  0  0  0  0  0  0  0  0  0  0
    9.7942   -3.3244    0.0000 H   0  0  0  0  0  0  0  0  0  0  0  0
   10.3312   -2.0144    0.0000 H   0  0  0  0  0  0  0  0  0  0  0  0
   10.0495    0.1040    0.0000 H   0  0  0  0  0  0  0  0  0  0  0  0
   10.5829   -0.4883    0.0000 H   0  0  0  0  0  0  0  0  0  0  0  0
   11.8923    1.7144    0.0000 H   0  0  0  0  0  0  0  0  0  0  0  0
    9.8637   -1.6595    0.0000 H   0  0  0  0  0  0  0  0  0  0  0  0
    9.0666   -1.6595    0.0000 H   0  0  0  0  0  0  0  0  0  0  0  0
   12.9292   -4.7544    0.0000 H   0  0  0  0  0  0  0  0  0  0  0  0
   10.6603   -5.4444    0.0000 H   0  0  0  0  0  0  0  0  0  0  0  0
   15.2131   -0.9659    0.0000 H   0  0  0  0  0  0  0  0  0  0  0  0
    9.4651   -4.7544    0.0000 H   0  0  0  0  0  0  0  0  0  0  0  0
    9.8716    1.2954    0.0000 H   0  0  0  0  0  0  0  0  0  0  0  0
   15.8090    0.9980    0.0000 H   0  0  0  0  0  0  0  0  0  0  0  0
   15.0954    2.8058    0.0000 H   0  0  0  0  0  0  0  0  0  0  0  0
    6.8671   -3.2544    0.0000 H   0  0  0  0  0  0  0  0  0  0  0  0
    6.0010   -1.5144    0.0000 H   0  0  0  0  0  0  0  0  0  0  0  0
   17.1215    1.4244    0.0000 H   0  0  0  0  0  0  0  0  0  0  0  0
   16.2544    4.0930    0.0000 H   0  0  0  0  0  0  0  0  0  0  0  0
    4.2690   -1.5144    0.0000 H   0  0  0  0  0  0  0  0  0  0  0  0
    5.6720   -3.9444    0.0000 H   0  0  0  0  0  0  0  0  0  0  0  0
   17.5458    6.0952    0.0000 H   0  0  0  0  0  0  0  0  0  0  0  0
   16.6702    6.0493    0.0000 H   0  0  0  0  0  0  0  0  0  0  0  0
   16.7161    5.1737    0.0000 H   0  0  0  0  0  0  0  0  0  0  0  0
   20.0872    1.3901    0.0000 H   0  0  0  0  0  0  0  0  0  0  0  0
   20.4853    2.1713    0.0000 H   0  0  0  0  0  0  0  0  0  0  0  0
   19.7041    2.5694    0.0000 H   0  0  0  0  0  0  0  0  0  0  0  0
   20.1748    4.4763    0.0000 H   0  0  0  0  0  0  0  0  0  0  0  0
   19.6972    5.2116    0.0000 H   0  0  0  0  0  0  0  0  0  0  0  0
   18.9619    4.7341    0.0000 H   0  0  0  0  0  0  0  0  0  0  0  0
    2.0000   -3.8244    0.0000 H   0  0  0  0  0  0  0  0  0  0  0  0
    3.0930   -5.0975    0.0000 H   0  0  0  0  0  0  0  0  0  0  0  0
    2.8660   -5.9444    0.0000 H   0  0  0  0  0  0  0  0  0  0  0  0
    3.7130   -6.1714    0.0000 H   0  0  0  0  0  0  0  0  0  0  0  0
    3.1569   -1.1344    0.0000 H   0  0  0  0  0  0  0  0  0  0  0  0
    2.5369   -0.5144    0.0000 H   0  0  0  0  0  0  0  0  0  0  0  0
    1.9169   -1.1344    0.0000 H   0  0  0  0  0  0  0  0  0  0  0  0
  1 20  1  0  0  0  0
  1 23  1  0  0  0  0
 20  2  1  6  0  0  0
 24  2  1  6  0  0  0
  3 24  1  0  0  0  0
  3 29  1  0  0  0  0
 21  4  1  6  0  0  0
  4 32  1  0  0  0  0
 22  5  1  1  0  0  0
  5 67  1  0  0  0  0
 25  6  1  6  0  0  0
  6 70  1  0  0  0  0
 26  7  1  1  0  0  0
  7 71  1  0  0  0  0
  8 27  1  0  0  0  0
  8 72  1  0  0  0  0
 28  9  1  6  0  0  0
  9 73  1  0  0  0  0
 10 30  1  0  0  0  0
 10 74  1  0  0  0  0
 11 31  1  0  0  0  0
 11 34  1  0  0  0  0
 12 32  2  0  0  0  0
 13 34  2  0  0  0  0
 14 42  1  0  0  0  0
 14 50  1  0  0  0  0
 15 43  1  0  0  0  0
 15 51  1  0  0  0  0
 16 44  1  0  0  0  0
 16 52  1  0  0  0  0
 17 47  1  0  0  0  0
 17 53  1  0  0  0  0
 18 48  1  0  0  0  0
 18 54  1  0  0  0  0
 19 49  1  0  0  0  0
 19 92  1  0  0  0  0
 20 21  1  0  0  0  0
 20 27  1  0  0  0  0
 21 22  1  0  0  0  0
 21 55  1  0  0  0  0
 22 23  1  0  0  0  0
 22 56  1  0  0  0  0
 23 30  1  6  0  0  0
 23 57  1  0  0  0  0
 24 25  1  0  0  0  0
 24 58  1  0  0  0  0
 25 26  1  0  0  0  0
 25 59  1  0  0  0  0
 26 28  1  0  0  0  0
 26 60  1  0  0  0  0
 27 61  1  0  0  0  0
 27 62  1  0  0  0  0
 28 29  1  0  0  0  0
 28 63  1  0  0  0  0
 29 31  1  1  0  0  0
 29 64  1  0  0  0  0
 30 65  1  0  0  0  0
 30 66  1  0  0  0  0
 31 68  1  0  0  0  0
 31 69  1  0  0  0  0
 32 33  1  0  0  0  0
 33 35  2  0  0  0  0
 33 75  1  0  0  0  0
 34 36  1  0  0  0  0
 35 37  1  0  0  0  0
 35 76  1  0  0  0  0
 36 38  2  0  0  0  0
 36 77  1  0  0  0  0
 37 39  2  0  0  0  0
 37 40  1  0  0  0  0
 38 41  1  0  0  0  0
 38 78  1  0  0  0  0
 39 43  1  0  0  0  0
 39 79  1  0  0  0  0
 40 42  2  0  0  0  0
 40 80  1  0  0  0  0
 41 45  2  0  0  0  0
 41 46  1  0  0  0  0
 42 44  1  0  0  0  0
 43 44  2  0  0  0  0
 45 48  1  0  0  0  0
 45 81  1  0  0  0  0
 46 47  2  0  0  0  0
 46 82  1  0  0  0  0
 47 49  1  0  0  0  0
 48 49  2  0  0  0  0
 50 83  1  0  0  0  0
 50 84  1  0  0  0  0
 50 85  1  0  0  0  0
 51 86  1  0  0  0  0
 51 87  1  0  0  0  0
 51 88  1  0  0  0  0
 52 89  1  0  0  0  0
 52 90  1  0  0  0  0
 52 91  1  0  0  0  0
 53 93  1  0  0  0  0
 53 94  1  0  0  0  0
 53 95  1  0  0  0  0
 54 96  1  0  0  0  0
 54 97  1  0  0  0  0
 54 98  1  0  0  0  0
M  END
> <PUBCHEM_COMPOUND_CID>
11968391

> <PUBCHEM_COMPOUND_CANONICALIZED>
1

> <PUBCHEM_CACTVS_COMPLEXITY>
1220

> <PUBCHEM_CACTVS_HBOND_ACCEPTOR>
19

> <PUBCHEM_CACTVS_HBOND_DONOR>
7

> <PUBCHEM_CACTVS_ROTATABLE_BOND>
18

> <PUBCHEM_CACTVS_SUBSKEYS>
AAADcfB8PgAAAAAAAAAAAAAAAAAAASAAAAA0YIAAAAAAAAABQAAAGgAACAAADBSwmAMyDoAABgCIAiDSCAACCAAgIAAIiAAGiMgdNyKGMRqicCMlwBUPuYfA4BwOIAABCAAAQABAAAIQAACAAAAAAAAAAA==

> <PUBCHEM_IUPAC_OPENEYE_NAME>
[(2R,3S,4S,5R,6R)-3,4,5-trihydroxy-6-[(2S,3S,4R,5R)-4-hydroxy-2,5-bis(hydroxymethyl)-3-[(E)-3-(3,4,5-trimethoxyphenyl)prop-2-enoyl]oxy-tetrahydrofuran-2-yl]oxy-tetrahydropyran-2-yl]methyl (E)-3-(4-hydroxy-3,5-dimethoxy-phenyl)prop-2-enoate

> <PUBCHEM_IUPAC_CAS_NAME>
(E)-3-(4-hydroxy-3,5-dimethoxyphenyl)-2-propenoic acid [(2R,3S,4S,5R,6R)-3,4,5-trihydroxy-6-[[(2S,3S,4R,5R)-4-hydroxy-2,5-bis(hydroxymethyl)-3-[(E)-1-oxo-3-(3,4,5-trimethoxyphenyl)prop-2-enoxy]-2-oxolanyl]oxy]-2-oxanyl]methyl ester

> <PUBCHEM_IUPAC_NAME_MARKUP>
[(2<I>R</I>,3<I>S</I>,4<I>S</I>,5<I>R</I>,6<I>R</I>)-3,4,5-trihydroxy-6-[(2<I>S</I>,3<I>S</I>,4<I>R</I>,5<I>R</I>)-4-hydroxy-2,5-bis(hydroxymethyl)-3-[(<I>E</I>)-3-(3,4,5-trimethoxyphenyl)prop-2-enoyl]oxyoxolan-2-yl]oxyoxan-2-yl]methyl (<I>E</I>)-3-(4-hydroxy-3,5-dimethoxyphenyl)prop-2-enoate

> <PUBCHEM_IUPAC_NAME>
[(2R,3S,4S,5R,6R)-3,4,5-trihydroxy-6-[(2S,3S,4R,5R)-4-hydroxy-2,5-bis(hydroxymethyl)-3-[(E)-3-(3,4,5-trimethoxyphenyl)prop-2-enoyl]oxyoxolan-2-yl]oxyoxan-2-yl]methyl (E)-3-(4-hydroxy-3,5-dimethoxyphenyl)prop-2-enoate

> <PUBCHEM_IUPAC_SYSTEMATIC_NAME>
[(2R,3S,4S,5R,6R)-6-[(2S,3S,4R,5R)-2,5-bis(hydroxymethyl)-4-oxidanyl-3-[(E)-3-(3,4,5-trimethoxyphenyl)prop-2-enoyl]oxy-oxolan-2-yl]oxy-3,4,5-tris(oxidanyl)oxan-2-yl]methyl (E)-3-(3,5-dimethoxy-4-oxidanyl-phenyl)prop-2-enoate

> <PUBCHEM_IUPAC_TRADITIONAL_NAME>
(E)-3-(4-hydroxy-3,5-dimethoxy-phenyl)acrylic acid [(2R,3S,4S,5R,6R)-3,4,5-trihydroxy-6-[(2S,3S,4R,5R)-4-hydroxy-2,5-dimethylol-3-[(E)-3-(3,4,5-trimethoxyphenyl)acryloyl]oxy-tetrahydrofuran-2-yl]oxy-tetrahydropyran-2-yl]methyl ester

> <PUBCHEM_IUPAC_INCHI>
InChI=1S/C35H44O19/c1-45-19-10-17(11-20(46-2)27(19)40)6-8-25(38)50-15-24-28(41)30(43)31(44)34(51-24)54-35(16-37)33(29(42)23(14-36)53-35)52-26(39)9-7-18-12-21(47-3)32(49-5)22(13-18)48-4/h6-13,23-24,28-31,33-34,36-37,40-44H,14-16H2,1-5H3/b8-6+,9-7+/t23-,24-,28-,29-,30+,31-,33+,34-,35+/m1/s1

> <PUBCHEM_IUPAC_INCHIKEY>
PMGMZCFZCYRJAG-KQTMLTHJSA-N

> <PUBCHEM_XLOGP3_AA>
-0.2

> <PUBCHEM_EXACT_MASS>
768.247679

> <PUBCHEM_MOLECULAR_FORMULA>
C35H44O19

> <PUBCHEM_MOLECULAR_WEIGHT>
768.7

> <PUBCHEM_OPENEYE_CAN_SMILES>
COC1=CC(=CC(=C1O)OC)C=CC(=O)OCC2C(C(C(C(O2)OC3(C(C(C(O3)CO)O)OC(=O)C=CC4=CC(=C(C(=C4)OC)OC)OC)CO)O)O)O

> <PUBCHEM_OPENEYE_ISO_SMILES>
COC1=CC(=CC(=C1O)OC)/C=C/C(=O)OC[C@@H]2[C@H]([C@@H]([C@H]([C@H](O2)O[C@]3([C@H]([C@@H]([C@H](O3)CO)O)OC(=O)/C=C/C4=CC(=C(C(=C4)OC)OC)OC)CO)O)O)O

> <PUBCHEM_CACTVS_TPSA>
268

> <PUBCHEM_MONOISOTOPIC_WEIGHT>
768.247679

> <PUBCHEM_TOTAL_CHARGE>
0

> <PUBCHEM_HEAVY_ATOM_COUNT>
54

> <PUBCHEM_ATOM_DEF_STEREO_COUNT>
9

> <PUBCHEM_ATOM_UDEF_STEREO_COUNT>
0

> <PUBCHEM_BOND_DEF_STEREO_COUNT>
2

> <PUBCHEM_BOND_UDEF_STEREO_COUNT>
0

> <PUBCHEM_ISOTOPIC_ATOM_COUNT>
0

> <PUBCHEM_COMPONENT_COUNT>
1

> <PUBCHEM_CACTVS_TAUTO_COUNT>
-1

> <PUBCHEM_COORDINATE_TYPE>
1
5
255

> <PUBCHEM_BONDANNOTATIONS>
20  2  6
24  2  6
23  30  6
29  31  5
37  39  8
37  40  8
39  43  8
21  4  6
40  42  8
41  45  8
41  46  8
42  44  8
43  44  8
45  48  8
46  47  8
47  49  8
48  49  8
22  5  5
25  6  6
26  7  5
28  9  6

$$$$
