190934
  -OEChem-08282001152D

103108  0     1  0  0  0  0  0999 V2000
    9.7170   -1.6217    0.0000 O   0  0  0  0  0  0  0  0  0  0  0  0
    7.8620    6.1324    0.0000 O   0  0  0  0  0  0  0  0  0  0  0  0
    9.6571    5.0588    0.0000 O   0  0  0  0  0  0  0  0  0  0  0  0
    6.0010   -3.1262    0.0000 O   0  0  0  0  0  0  0  0  0  0  0  0
    5.1350   -1.6262    0.0000 O   0  0  0  0  0  0  0  0  0  0  0  0
    5.4100    5.4690    0.0000 O   0  0  0  0  0  0  0  0  0  0  0  0
    4.2690   -3.1262    0.0000 O   0  0  0  0  0  0  0  0  0  0  0  0
    6.0010   -5.1262    0.0000 O   0  0  0  0  0  0  0  0  0  0  0  0
    4.2690   -6.1262    0.0000 O   0  0  0  0  0  0  0  0  0  0  0  0
    2.5369   -5.1262    0.0000 O   0  0  0  0  0  0  0  0  0  0  0  0
    2.5369   -2.1262    0.0000 O   0  0  0  0  0  0  0  0  0  0  0  0
    6.9067    1.4429    0.0000 C   0  0  2  0  0  0  0  0  0  0  0  0
    7.7765    1.9362    0.0000 C   0  0  1  0  0  0  0  0  0  0  0  0
    7.8006    2.9776    0.0000 C   0  0  2  0  0  0  0  0  0  0  0  0
    6.8990    0.4429    0.0000 C   0  0  1  0  0  0  0  0  0  0  0  0
    6.9067    3.5122    0.0000 C   0  0  1  0  0  0  0  0  0  0  0  0
    6.0006    1.9567    0.0000 C   0  0  0  0  0  0  0  0  0  0  0  0
    7.7611   -0.0637    0.0000 C   0  0  0  0  0  0  0  0  0  0  0  0
    7.7691   -1.1053    0.0000 C   0  0  1  0  0  0  0  0  0  0  0  0
    6.0006    2.9984    0.0000 C   0  0  0  0  0  0  0  0  0  0  0  0
    6.8671   -1.6262    0.0000 C   0  0  1  0  0  0  0  0  0  0  0  0
    5.9851   -0.0569    0.0000 C   0  0  0  0  0  0  0  0  0  0  0  0
    8.6387    1.4295    0.0000 C   0  0  0  0  0  0  0  0  0  0  0  0
    6.9067    4.5972    0.0000 C   0  0  2  0  0  0  0  0  0  0  0  0
    8.7565    3.4908    0.0000 C   0  0  0  0  0  0  0  0  0  0  0  0
    5.9690   -1.0984    0.0000 C   0  0  0  0  0  0  0  0  0  0  0  0
    5.9206    1.2769    0.0000 C   0  0  0  0  0  0  0  0  0  0  0  0
    8.6310    0.4296    0.0000 C   0  0  0  0  0  0  0  0  0  0  0  0
    8.7170   -1.6333    0.0000 C   0  0  1  0  0  0  0  0  0  0  0  0
    8.6588    2.4643    0.0000 C   0  0  0  0  0  0  0  0  0  0  0  0
    7.8505    5.1325    0.0000 C   0  0  2  0  0  0  0  0  0  0  0  0
    5.9155    0.6242    0.0000 C   0  0  0  0  0  0  0  0  0  0  0  0
    8.7816    4.5755    0.0000 C   0  0  2  0  0  0  0  0  0  0  0  0
    6.8503   -2.7110    0.0000 C   0  0  0  0  0  0  0  0  0  0  0  0
    8.7254   -2.7182    0.0000 C   0  0  1  0  0  0  0  0  0  0  0  0
    7.7858   -3.2607    0.0000 C   0  0  0  0  0  0  0  0  0  0  0  0
    5.9067    4.6011    0.0000 C   0  0  0  0  0  0  0  0  0  0  0  0
    6.0010   -2.1262    0.0000 C   0  0  0  0  0  0  0  0  0  0  0  0
    6.4100    5.4652    0.0000 C   0  0  0  0  0  0  0  0  0  0  0  0
    9.2070   -0.7615    0.0000 C   0  0  0  0  0  0  0  0  0  0  0  0
    9.5933   -3.2149    0.0000 C   0  0  0  0  0  0  0  0  0  0  0  0
    5.1350   -3.6262    0.0000 C   0  0  2  0  0  0  0  0  0  0  0  0
    5.1350   -4.6262    0.0000 C   0  0  1  0  0  0  0  0  0  0  0  0
    4.2690   -5.1262    0.0000 C   0  0  2  0  0  0  0  0  0  0  0  0
    3.4030   -3.6262    0.0000 C   0  0  1  0  0  0  0  0  0  0  0  0
    3.4030   -4.6262    0.0000 C   0  0  1  0  0  0  0  0  0  0  0  0
    2.5369   -3.1262    0.0000 C   0  0  0  0  0  0  0  0  0  0  0  0
    8.5191    2.3498    0.0000 H   0  0  0  0  0  0  0  0  0  0  0  0
    6.1722    3.9400    0.0000 H   0  0  0  0  0  0  0  0  0  0  0  0
    5.3898    2.0628    0.0000 H   0  0  0  0  0  0  0  0  0  0  0  0
    5.7916    1.3731    0.0000 H   0  0  0  0  0  0  0  0  0  0  0  0
    8.5003   -0.6719    0.0000 H   0  0  0  0  0  0  0  0  0  0  0  0
    5.7916    3.5821    0.0000 H   0  0  0  0  0  0  0  0  0  0  0  0
    5.3898    2.8923    0.0000 H   0  0  0  0  0  0  0  0  0  0  0  0
    5.7850    0.5300    0.0000 H   0  0  0  0  0  0  0  0  0  0  0  0
    5.3727   -0.1536    0.0000 H   0  0  0  0  0  0  0  0  0  0  0  0
    9.2484    1.3172    0.0000 H   0  0  0  0  0  0  0  0  0  0  0  0
    8.8552    2.0105    0.0000 H   0  0  0  0  0  0  0  0  0  0  0  0
    8.9520    2.9025    0.0000 H   0  0  0  0  0  0  0  0  0  0  0  0
    9.3697    3.5828    0.0000 H   0  0  0  0  0  0  0  0  0  0  0  0
    5.3599   -0.9829    0.0000 H   0  0  0  0  0  0  0  0  0  0  0  0
    5.7510   -1.6788    0.0000 H   0  0  0  0  0  0  0  0  0  0  0  0
    5.8176    1.8883    0.0000 H   0  0  0  0  0  0  0  0  0  0  0  0
    5.3092    1.1740    0.0000 H   0  0  0  0  0  0  0  0  0  0  0  0
    6.0235    0.6655    0.0000 H   0  0  0  0  0  0  0  0  0  0  0  0
    9.1655    0.1154    0.0000 H   0  0  0  0  0  0  0  0  0  0  0  0
    8.3406    1.9322    0.0000 H   0  0  0  0  0  0  0  0  0  0  0  0
    9.1909    2.1460    0.0000 H   0  0  0  0  0  0  0  0  0  0  0  0
    8.9771    2.9964    0.0000 H   0  0  0  0  0  0  0  0  0  0  0  0
    7.3165    5.4476    0.0000 H   0  0  0  0  0  0  0  0  0  0  0  0
    6.0279    1.2339    0.0000 H   0  0  0  0  0  0  0  0  0  0  0  0
    5.3058    0.7365    0.0000 H   0  0  0  0  0  0  0  0  0  0  0  0
    5.8032    0.0144    0.0000 H   0  0  0  0  0  0  0  0  0  0  0  0
    8.7924    5.1954    0.0000 H   0  0  0  0  0  0  0  0  0  0  0  0
    6.2412   -2.5955    0.0000 H   0  0  0  0  0  0  0  0  0  0  0  0
    6.6323   -3.2914    0.0000 H   0  0  0  0  0  0  0  0  0  0  0  0
    9.2605   -2.4052    0.0000 H   0  0  0  0  0  0  0  0  0  0  0  0
    7.3848   -3.7336    0.0000 H   0  0  0  0  0  0  0  0  0  0  0  0
    8.1831   -3.7367    0.0000 H   0  0  0  0  0  0  0  0  0  0  0  0
    5.9091    5.2211    0.0000 H   0  0  0  0  0  0  0  0  0  0  0  0
    5.2867    4.6035    0.0000 H   0  0  0  0  0  0  0  0  0  0  0  0
    5.9043    3.9811    0.0000 H   0  0  0  0  0  0  0  0  0  0  0  0
    6.7221    6.0009    0.0000 H   0  0  0  0  0  0  0  0  0  0  0  0
    9.7475   -1.0653    0.0000 H   0  0  0  0  0  0  0  0  0  0  0  0
    9.5108   -0.2210    0.0000 H   0  0  0  0  0  0  0  0  0  0  0  0
    8.6665   -0.4578    0.0000 H   0  0  0  0  0  0  0  0  0  0  0  0
    9.2854   -3.7530    0.0000 H   0  0  0  0  0  0  0  0  0  0  0  0
   10.1315   -3.5228    0.0000 H   0  0  0  0  0  0  0  0  0  0  0  0
    9.9013   -2.6768    0.0000 H   0  0  0  0  0  0  0  0  0  0  0  0
   10.0331   -2.1550    0.0000 H   0  0  0  0  0  0  0  0  0  0  0  0
    8.4025    6.4361    0.0000 H   0  0  0  0  0  0  0  0  0  0  0  0
   10.1880    4.7385    0.0000 H   0  0  0  0  0  0  0  0  0  0  0  0
    5.1350   -3.0062    0.0000 H   0  0  0  0  0  0  0  0  0  0  0  0
    5.1350   -5.2462    0.0000 H   0  0  0  0  0  0  0  0  0  0  0  0
    3.7320   -5.4361    0.0000 H   0  0  0  0  0  0  0  0  0  0  0  0
    3.4030   -3.0062    0.0000 H   0  0  0  0  0  0  0  0  0  0  0  0
    3.4030   -5.2462    0.0000 H   0  0  0  0  0  0  0  0  0  0  0  0
    6.5380   -4.8162    0.0000 H   0  0  0  0  0  0  0  0  0  0  0  0
    1.9264   -3.0185    0.0000 H   0  0  0  0  0  0  0  0  0  0  0  0
    2.3249   -3.7088    0.0000 H   0  0  0  0  0  0  0  0  0  0  0  0
    3.7320   -6.4361    0.0000 H   0  0  0  0  0  0  0  0  0  0  0  0
    2.0000   -4.8162    0.0000 H   0  0  0  0  0  0  0  0  0  0  0  0
    2.0000   -1.8162    0.0000 H   0  0  0  0  0  0  0  0  0  0  0  0
 29  1  1  6  0  0  0
  1 90  1  0  0  0  0
 31  2  1  1  0  0  0
  2 91  1  0  0  0  0
 33  3  1  6  0  0  0
  3 92  1  0  0  0  0
  4 38  1  0  0  0  0
 42  4  1  1  0  0  0
  5 38  2  0  0  0  0
  6 39  2  0  0  0  0
  7 42  1  0  0  0  0
  7 45  1  0  0  0  0
 43  8  1  6  0  0  0
  8 98  1  0  0  0  0
 44  9  1  1  0  0  0
  9101  1  0  0  0  0
 46 10  1  6  0  0  0
 10102  1  0  0  0  0
 11 47  1  0  0  0  0
 11103  1  0  0  0  0
 12 13  1  0  0  0  0
 12 15  1  0  0  0  0
 12 17  1  0  0  0  0
 12 27  1  1  0  0  0
 13 14  1  0  0  0  0
 13 23  1  0  0  0  0
 13 48  1  6  0  0  0
 14 16  1  0  0  0  0
 14 25  1  0  0  0  0
 14 30  1  1  0  0  0
 15 18  1  0  0  0  0
 15 22  1  0  0  0  0
 15 32  1  6  0  0  0
 16 20  1  0  0  0  0
 16 24  1  0  0  0  0
 16 49  1  6  0  0  0
 17 20  1  0  0  0  0
 17 50  1  0  0  0  0
 17 51  1  0  0  0  0
 18 19  1  0  0  0  0
 18 28  2  0  0  0  0
 19 21  1  0  0  0  0
 19 29  1  0  0  0  0
 19 52  1  1  0  0  0
 20 53  1  0  0  0  0
 20 54  1  0  0  0  0
 21 26  1  0  0  0  0
 21 34  1  0  0  0  0
 21 38  1  1  0  0  0
 22 26  1  0  0  0  0
 22 55  1  0  0  0  0
 22 56  1  0  0  0  0
 23 28  1  0  0  0  0
 23 57  1  0  0  0  0
 23 58  1  0  0  0  0
 24 31  1  0  0  0  0
 24 37  1  1  0  0  0
 24 39  1  0  0  0  0
 25 33  1  0  0  0  0
 25 59  1  0  0  0  0
 25 60  1  0  0  0  0
 26 61  1  0  0  0  0
 26 62  1  0  0  0  0
 27 63  1  0  0  0  0
 27 64  1  0  0  0  0
 27 65  1  0  0  0  0
 28 66  1  0  0  0  0
 29 35  1  0  0  0  0
 29 40  1  0  0  0  0
 30 67  1  0  0  0  0
 30 68  1  0  0  0  0
 30 69  1  0  0  0  0
 31 33  1  0  0  0  0
 31 70  1  0  0  0  0
 32 71  1  0  0  0  0
 32 72  1  0  0  0  0
 32 73  1  0  0  0  0
 33 74  1  0  0  0  0
 34 36  1  0  0  0  0
 34 75  1  0  0  0  0
 34 76  1  0  0  0  0
 35 36  1  0  0  0  0
 35 41  1  6  0  0  0
 35 77  1  0  0  0  0
 36 78  1  0  0  0  0
 36 79  1  0  0  0  0
 37 80  1  0  0  0  0
 37 81  1  0  0  0  0
 37 82  1  0  0  0  0
 39 83  1  0  0  0  0
 40 84  1  0  0  0  0
 40 85  1  0  0  0  0
 40 86  1  0  0  0  0
 41 87  1  0  0  0  0
 41 88  1  0  0  0  0
 41 89  1  0  0  0  0
 42 43  1  0  0  0  0
 42 93  1  0  0  0  0
 43 44  1  0  0  0  0
 43 94  1  0  0  0  0
 44 46  1  0  0  0  0
 44 95  1  0  0  0  0
 45 46  1  0  0  0  0
 45 47  1  1  0  0  0
 45 96  1  0  0  0  0
 46 97  1  0  0  0  0
 47 99  1  0  0  0  0
 47100  1  0  0  0  0
M  END
> <PUBCHEM_COMPOUND_CID>
190934

> <PUBCHEM_COMPOUND_CANONICALIZED>
1

> <PUBCHEM_CACTVS_COMPLEXITY>
1310

> <PUBCHEM_CACTVS_HBOND_ACCEPTOR>
11

> <PUBCHEM_CACTVS_HBOND_DONOR>
7

> <PUBCHEM_CACTVS_ROTATABLE_BOND>
5

> <PUBCHEM_CACTVS_SUBSKEYS>
AAADcfB8PAAAAAAAAAAAAAAAAAAAAAAAAAA0YMGCAAAAAADAAAAAGgAACAAAD1SwgAMCCAAABgCIAijSiAAAAAAgAAAACAEAAAgREBYAAQAiQAAF4AAPAAPK6PyPgAAAAAAAAADAAAYAADCAAAAAAAAAAA==

> <PUBCHEM_IUPAC_OPENEYE_NAME>
[(2S,3R,4S,5S,6R)-3,4,5-trihydroxy-6-(hydroxymethyl)tetrahydropyran-2-yl] (1R,2R,4aS,6aR,6aS,6bR,8aR,9S,10R,11R,12aR,14bS)-9-formyl-1,10,11-trihydroxy-1,2,6a,6b,9,12a-hexamethyl-2,3,4,5,6,6a,7,8,8a,10,11,12,13,14b-tetradecahydropicene-4a-carboxylate

> <PUBCHEM_IUPAC_CAS_NAME>
(1R,2R,4aS,6aR,6aS,6bR,8aR,9S,10R,11R,12aR,14bS)-9-formyl-1,10,11-trihydroxy-1,2,6a,6b,9,12a-hexamethyl-2,3,4,5,6,6a,7,8,8a,10,11,12,13,14b-tetradecahydropicene-4a-carboxylic acid [(2S,3R,4S,5S,6R)-3,4,5-trihydroxy-6-(hydroxymethyl)-2-oxanyl] ester

> <PUBCHEM_IUPAC_NAME_MARKUP>
[(2<I>S</I>,3<I>R</I>,4<I>S</I>,5<I>S</I>,6<I>R</I>)-3,4,5-trihydroxy-6-(hydroxymethyl)oxan-2-yl] (1<I>R</I>,2<I>R</I>,4<I>a</I><I>S</I>,6<I>a</I><I>R</I>,6<I>a</I><I>S</I>,6<I>b</I><I>R</I>,8<I>a</I><I>R</I>,9<I>S</I>,10<I>R</I>,11<I>R</I>,12<I>a</I><I>R</I>,14<I>b</I><I>S</I>)-9-formyl-1,10,11-trihydroxy-1,2,6<I>a</I>,6<I>b</I>,9,12<I>a</I>-hexamethyl-2,3,4,5,6,6<I>a</I>,7,8,8<I>a</I>,10,11,12,13,14<I>b</I>-tetradecahydropicene-4<I>a</I>-carboxylate

> <PUBCHEM_IUPAC_NAME>
[(2S,3R,4S,5S,6R)-3,4,5-trihydroxy-6-(hydroxymethyl)oxan-2-yl] (1R,2R,4aS,6aR,6aS,6bR,8aR,9S,10R,11R,12aR,14bS)-9-formyl-1,10,11-trihydroxy-1,2,6a,6b,9,12a-hexamethyl-2,3,4,5,6,6a,7,8,8a,10,11,12,13,14b-tetradecahydropicene-4a-carboxylate

> <PUBCHEM_IUPAC_SYSTEMATIC_NAME>
[(2S,3R,4S,5S,6R)-6-(hydroxymethyl)-3,4,5-tris(oxidanyl)oxan-2-yl] (1R,2R,4aS,6aR,6aS,6bR,8aR,9S,10R,11R,12aR,14bS)-9-methanoyl-1,2,6a,6b,9,12a-hexamethyl-1,10,11-tris(oxidanyl)-2,3,4,5,6,6a,7,8,8a,10,11,12,13,14b-tetradecahydropicene-4a-carboxylate

> <PUBCHEM_IUPAC_TRADITIONAL_NAME>
(1R,2R,4aS,6aR,6aS,6bR,8aR,9S,10R,11R,12aR,14bS)-9-formyl-1,10,11-trihydroxy-1,2,6a,6b,9,12a-hexamethyl-2,3,4,5,6,6a,7,8,8a,10,11,12,13,14b-tetradecahydropicene-4a-carboxylic acid [(2S,3R,4S,5S,6R)-3,4,5-trihydroxy-6-methylol-tetrahydropyran-2-yl] ester

> <PUBCHEM_IUPAC_INCHI>
InChI=1S/C36H56O11/c1-18-9-12-36(30(44)47-29-26(42)25(41)24(40)21(16-37)46-29)14-13-33(4)19(27(36)35(18,6)45)7-8-23-31(2)15-20(39)28(43)32(3,17-38)22(31)10-11-34(23,33)5/h7,17-18,20-29,37,39-43,45H,8-16H2,1-6H3/t18-,20-,21-,22-,23-,24-,25+,26-,27-,28+,29+,31+,32+,33-,34-,35-,36+/m1/s1

> <PUBCHEM_IUPAC_INCHIKEY>
YZANFWDKMDESHV-JVJIQXRHSA-N

> <PUBCHEM_XLOGP3_AA>
2.3

> <PUBCHEM_EXACT_MASS>
664.382263

> <PUBCHEM_MOLECULAR_FORMULA>
C36H56O11

> <PUBCHEM_MOLECULAR_WEIGHT>
664.8

> <PUBCHEM_OPENEYE_CAN_SMILES>
CC1CCC2(CCC3(C(=CCC4C3(CCC5C4(CC(C(C5(C)C=O)O)O)C)C)C2C1(C)O)C)C(=O)OC6C(C(C(C(O6)CO)O)O)O

> <PUBCHEM_OPENEYE_ISO_SMILES>
C[C@@H]1CC[C@@]2(CC[C@@]3(C(=CC[C@H]4[C@]3(CC[C@@H]5[C@@]4(C[C@H]([C@@H]([C@@]5(C)C=O)O)O)C)C)[C@@H]2[C@]1(C)O)C)C(=O)O[C@H]6[C@@H]([C@H]([C@@H]([C@H](O6)CO)O)O)O

> <PUBCHEM_CACTVS_TPSA>
194

> <PUBCHEM_MONOISOTOPIC_WEIGHT>
664.382263

> <PUBCHEM_TOTAL_CHARGE>
0

> <PUBCHEM_HEAVY_ATOM_COUNT>
47

> <PUBCHEM_ATOM_DEF_STEREO_COUNT>
17

> <PUBCHEM_ATOM_UDEF_STEREO_COUNT>
0

> <PUBCHEM_BOND_DEF_STEREO_COUNT>
0

> <PUBCHEM_BOND_UDEF_STEREO_COUNT>
0

> <PUBCHEM_ISOTOPIC_ATOM_COUNT>
0

> <PUBCHEM_COMPONENT_COUNT>
1

> <PUBCHEM_CACTVS_TAUTO_COUNT>
-1

> <PUBCHEM_COORDINATE_TYPE>
1
5
255

> <PUBCHEM_BONDANNOTATIONS>
29  1  6
46  10  6
12  27  5
13  48  6
14  30  5
15  32  6
16  49  6
19  52  5
31  2  5
21  38  5
24  37  5
33  3  6
35  41  6
42  4  5
45  47  5
43  8  6
44  9  5

$$$$
