71609288
  -OEChem-08282001262D

120126  0     1  0  0  0  0  0999 V2000
    7.8620    4.6425    0.0000 O   0  0  0  0  0  0  0  0  0  0  0  0
    9.7170   -3.1116    0.0000 O   0  0  0  0  0  0  0  0  0  0  0  0
    6.0010   -4.6160    0.0000 O   0  0  0  0  0  0  0  0  0  0  0  0
    5.1350   -3.1160    0.0000 O   0  0  0  0  0  0  0  0  0  0  0  0
    9.5940    4.6225    0.0000 O   0  0  0  0  0  0  0  0  0  0  0  0
    4.2690   -4.6160    0.0000 O   0  0  0  0  0  0  0  0  0  0  0  0
    7.8852    6.6424    0.0000 O   0  0  0  0  0  0  0  0  0  0  0  0
    9.6286    7.6223    0.0000 O   0  0  0  0  0  0  0  0  0  0  0  0
    6.0010   -6.6160    0.0000 O   0  0  0  0  0  0  0  0  0  0  0  0
   11.3490    6.6023    0.0000 O   0  0  0  0  0  0  0  0  0  0  0  0
    4.2690   -7.6160    0.0000 O   0  0  0  0  0  0  0  0  0  0  0  0
    2.5369   -6.6160    0.0000 O   0  0  0  0  0  0  0  0  0  0  0  0
    2.5369   -3.6160    0.0000 O   0  0  0  0  0  0  0  0  0  0  0  0
    6.9067   -0.0470    0.0000 C   0  0  2  0  0  0  0  0  0  0  0  0
    7.7765    0.4463    0.0000 C   0  0  1  0  0  0  0  0  0  0  0  0
    7.8006    1.4877    0.0000 C   0  0  2  0  0  0  0  0  0  0  0  0
    6.8990   -1.0470    0.0000 C   0  0  1  0  0  0  0  0  0  0  0  0
    6.9067    2.0223    0.0000 C   0  0  1  0  0  0  0  0  0  0  0  0
    6.0006    0.4669    0.0000 C   0  0  0  0  0  0  0  0  0  0  0  0
    7.7611   -1.5536    0.0000 C   0  0  0  0  0  0  0  0  0  0  0  0
    6.0006    1.5085    0.0000 C   0  0  0  0  0  0  0  0  0  0  0  0
    6.9067    3.1073    0.0000 C   0  0  0  0  0  0  0  0  0  0  0  0
    7.7691   -2.5952    0.0000 C   0  0  1  0  0  0  0  0  0  0  0  0
    8.6387   -0.0603    0.0000 C   0  0  0  0  0  0  0  0  0  0  0  0
    5.9851   -1.5468    0.0000 C   0  0  0  0  0  0  0  0  0  0  0  0
    8.7565    2.0009    0.0000 C   0  0  0  0  0  0  0  0  0  0  0  0
    6.8671   -3.1160    0.0000 C   0  0  1  0  0  0  0  0  0  0  0  0
    5.9690   -2.5883    0.0000 C   0  0  0  0  0  0  0  0  0  0  0  0
    5.9206   -0.2130    0.0000 C   0  0  0  0  0  0  0  0  0  0  0  0
    7.8505    3.6426    0.0000 C   0  0  2  0  0  0  0  0  0  0  0  0
    8.6310   -1.0603    0.0000 C   0  0  0  0  0  0  0  0  0  0  0  0
    8.6588    0.9744    0.0000 C   0  0  0  0  0  0  0  0  0  0  0  0
    8.7170   -3.1232    0.0000 C   0  0  1  0  0  0  0  0  0  0  0  0
    8.7816    3.0856    0.0000 C   0  0  0  0  0  0  0  0  0  0  0  0
    5.9155   -0.8657    0.0000 C   0  0  0  0  0  0  0  0  0  0  0  0
    6.8503   -4.2009    0.0000 C   0  0  0  0  0  0  0  0  0  0  0  0
    8.7254   -4.2081    0.0000 C   0  0  1  0  0  0  0  0  0  0  0  0
    6.4100    3.9753    0.0000 C   0  0  0  0  0  0  0  0  0  0  0  0
    5.9067    3.1112    0.0000 C   0  0  0  0  0  0  0  0  0  0  0  0
    7.7858   -4.7506    0.0000 C   0  0  0  0  0  0  0  0  0  0  0  0
    6.0010   -3.6160    0.0000 C   0  0  0  0  0  0  0  0  0  0  0  0
    9.2070   -2.2514    0.0000 C   0  0  0  0  0  0  0  0  0  0  0  0
    9.5933   -4.7048    0.0000 C   0  0  0  0  0  0  0  0  0  0  0  0
    8.7338    5.1325    0.0000 C   0  0  2  0  0  0  0  0  0  0  0  0
    8.7453    6.1324    0.0000 C   0  0  1  0  0  0  0  0  0  0  0  0
    5.1350   -5.1160    0.0000 C   0  0  2  0  0  0  0  0  0  0  0  0
    9.6171    6.6223    0.0000 C   0  0  2  0  0  0  0  0  0  0  0  0
    5.1350   -6.1160    0.0000 C   0  0  1  0  0  0  0  0  0  0  0  0
   10.4657    5.1124    0.0000 C   0  0  0  0  0  0  0  0  0  0  0  0
   10.4773    6.1124    0.0000 C   0  0  2  0  0  0  0  0  0  0  0  0
    4.2690   -6.6160    0.0000 C   0  0  2  0  0  0  0  0  0  0  0  0
    3.4030   -5.1160    0.0000 C   0  0  1  0  0  0  0  0  0  0  0  0
    3.4030   -6.1160    0.0000 C   0  0  1  0  0  0  0  0  0  0  0  0
    2.5369   -4.6160    0.0000 C   0  0  0  0  0  0  0  0  0  0  0  0
    8.5191    0.8599    0.0000 H   0  0  0  0  0  0  0  0  0  0  0  0
    6.1722    2.4502    0.0000 H   0  0  0  0  0  0  0  0  0  0  0  0
    5.3898    0.5729    0.0000 H   0  0  0  0  0  0  0  0  0  0  0  0
    5.7916   -0.1168    0.0000 H   0  0  0  0  0  0  0  0  0  0  0  0
    5.7916    2.0922    0.0000 H   0  0  0  0  0  0  0  0  0  0  0  0
    5.3898    1.4024    0.0000 H   0  0  0  0  0  0  0  0  0  0  0  0
    8.5003   -2.1617    0.0000 H   0  0  0  0  0  0  0  0  0  0  0  0
    9.2484   -0.1727    0.0000 H   0  0  0  0  0  0  0  0  0  0  0  0
    8.8552    0.5206    0.0000 H   0  0  0  0  0  0  0  0  0  0  0  0
    5.7850   -0.9599    0.0000 H   0  0  0  0  0  0  0  0  0  0  0  0
    5.3727   -1.6434    0.0000 H   0  0  0  0  0  0  0  0  0  0  0  0
    8.9520    1.4126    0.0000 H   0  0  0  0  0  0  0  0  0  0  0  0
    9.3697    2.0929    0.0000 H   0  0  0  0  0  0  0  0  0  0  0  0
    5.3599   -2.4728    0.0000 H   0  0  0  0  0  0  0  0  0  0  0  0
    5.7510   -3.1687    0.0000 H   0  0  0  0  0  0  0  0  0  0  0  0
    5.8176    0.3984    0.0000 H   0  0  0  0  0  0  0  0  0  0  0  0
    5.3092   -0.3159    0.0000 H   0  0  0  0  0  0  0  0  0  0  0  0
    6.0235   -0.8244    0.0000 H   0  0  0  0  0  0  0  0  0  0  0  0
    7.3165    3.9577    0.0000 H   0  0  0  0  0  0  0  0  0  0  0  0
    9.1655   -1.3744    0.0000 H   0  0  0  0  0  0  0  0  0  0  0  0
    8.3406    0.4423    0.0000 H   0  0  0  0  0  0  0  0  0  0  0  0
    9.1909    0.6561    0.0000 H   0  0  0  0  0  0  0  0  0  0  0  0
    8.9771    1.5065    0.0000 H   0  0  0  0  0  0  0  0  0  0  0  0
    9.3899    2.9654    0.0000 H   0  0  0  0  0  0  0  0  0  0  0  0
    9.0041    3.6643    0.0000 H   0  0  0  0  0  0  0  0  0  0  0  0
    6.0279   -0.2560    0.0000 H   0  0  0  0  0  0  0  0  0  0  0  0
    5.3058   -0.7534    0.0000 H   0  0  0  0  0  0  0  0  0  0  0  0
    5.8032   -1.4755    0.0000 H   0  0  0  0  0  0  0  0  0  0  0  0
    6.2412   -4.0854    0.0000 H   0  0  0  0  0  0  0  0  0  0  0  0
    6.6323   -4.7813    0.0000 H   0  0  0  0  0  0  0  0  0  0  0  0
    9.2605   -3.8950    0.0000 H   0  0  0  0  0  0  0  0  0  0  0  0
    6.9481    4.2832    0.0000 H   0  0  0  0  0  0  0  0  0  0  0  0
    6.1021    4.5134    0.0000 H   0  0  0  0  0  0  0  0  0  0  0  0
    5.8719    3.6673    0.0000 H   0  0  0  0  0  0  0  0  0  0  0  0
    5.9091    3.7312    0.0000 H   0  0  0  0  0  0  0  0  0  0  0  0
    5.2867    3.1136    0.0000 H   0  0  0  0  0  0  0  0  0  0  0  0
    5.9043    2.4912    0.0000 H   0  0  0  0  0  0  0  0  0  0  0  0
    7.3848   -5.2235    0.0000 H   0  0  0  0  0  0  0  0  0  0  0  0
    8.1831   -5.2266    0.0000 H   0  0  0  0  0  0  0  0  0  0  0  0
    9.7475   -2.5552    0.0000 H   0  0  0  0  0  0  0  0  0  0  0  0
    9.5108   -1.7109    0.0000 H   0  0  0  0  0  0  0  0  0  0  0  0
    8.6665   -1.9476    0.0000 H   0  0  0  0  0  0  0  0  0  0  0  0
    9.2854   -5.2429    0.0000 H   0  0  0  0  0  0  0  0  0  0  0  0
   10.1315   -5.0127    0.0000 H   0  0  0  0  0  0  0  0  0  0  0  0
    9.9013   -4.1667    0.0000 H   0  0  0  0  0  0  0  0  0  0  0  0
   10.0331   -3.6449    0.0000 H   0  0  0  0  0  0  0  0  0  0  0  0
    8.2005    5.4486    0.0000 H   0  0  0  0  0  0  0  0  0  0  0  0
    8.7525    6.7523    0.0000 H   0  0  0  0  0  0  0  0  0  0  0  0
    5.1350   -4.4960    0.0000 H   0  0  0  0  0  0  0  0  0  0  0  0
   10.1576    6.9261    0.0000 H   0  0  0  0  0  0  0  0  0  0  0  0
    5.1350   -6.7360    0.0000 H   0  0  0  0  0  0  0  0  0  0  0  0
   10.6710    4.5274    0.0000 H   0  0  0  0  0  0  0  0  0  0  0  0
   11.0775    5.2130    0.0000 H   0  0  0  0  0  0  0  0  0  0  0  0
   11.0106    5.7962    0.0000 H   0  0  0  0  0  0  0  0  0  0  0  0
    7.8923    7.2623    0.0000 H   0  0  0  0  0  0  0  0  0  0  0  0
    3.7320   -6.9260    0.0000 H   0  0  0  0  0  0  0  0  0  0  0  0
    3.4030   -4.4960    0.0000 H   0  0  0  0  0  0  0  0  0  0  0  0
    3.4030   -6.7360    0.0000 H   0  0  0  0  0  0  0  0  0  0  0  0
   10.1691    7.9260    0.0000 H   0  0  0  0  0  0  0  0  0  0  0  0
    6.5380   -6.3060    0.0000 H   0  0  0  0  0  0  0  0  0  0  0  0
   11.8823    6.2861    0.0000 H   0  0  0  0  0  0  0  0  0  0  0  0
    1.9264   -4.5084    0.0000 H   0  0  0  0  0  0  0  0  0  0  0  0
    2.3249   -5.1986    0.0000 H   0  0  0  0  0  0  0  0  0  0  0  0
    3.7320   -7.9260    0.0000 H   0  0  0  0  0  0  0  0  0  0  0  0
    2.0000   -6.3060    0.0000 H   0  0  0  0  0  0  0  0  0  0  0  0
    2.0000   -3.3060    0.0000 H   0  0  0  0  0  0  0  0  0  0  0  0
 30  1  1  1  0  0  0
 44  1  1  1  0  0  0
 33  2  1  6  0  0  0
  2100  1  0  0  0  0
  3 41  1  0  0  0  0
 46  3  1  1  0  0  0
  4 41  2  0  0  0  0
  5 44  1  0  0  0  0
  5 49  1  0  0  0  0
  6 46  1  0  0  0  0
  6 52  1  0  0  0  0
 45  7  1  6  0  0  0
  7109  1  0  0  0  0
 47  8  1  1  0  0  0
  8113  1  0  0  0  0
 48  9  1  6  0  0  0
  9114  1  0  0  0  0
 50 10  1  1  0  0  0
 10115  1  0  0  0  0
 51 11  1  1  0  0  0
 11118  1  0  0  0  0
 53 12  1  6  0  0  0
 12119  1  0  0  0  0
 13 54  1  0  0  0  0
 13120  1  0  0  0  0
 14 15  1  0  0  0  0
 14 17  1  0  0  0  0
 14 19  1  0  0  0  0
 14 29  1  1  0  0  0
 15 16  1  0  0  0  0
 15 24  1  0  0  0  0
 15 55  1  6  0  0  0
 16 18  1  0  0  0  0
 16 26  1  0  0  0  0
 16 32  1  1  0  0  0
 17 20  1  0  0  0  0
 17 25  1  0  0  0  0
 17 35  1  6  0  0  0
 18 21  1  0  0  0  0
 18 22  1  0  0  0  0
 18 56  1  6  0  0  0
 19 21  1  0  0  0  0
 19 57  1  0  0  0  0
 19 58  1  0  0  0  0
 20 23  1  0  0  0  0
 20 31  2  0  0  0  0
 21 59  1  0  0  0  0
 21 60  1  0  0  0  0
 22 30  1  0  0  0  0
 22 38  1  0  0  0  0
 22 39  1  0  0  0  0
 23 27  1  0  0  0  0
 23 33  1  0  0  0  0
 23 61  1  1  0  0  0
 24 31  1  0  0  0  0
 24 62  1  0  0  0  0
 24 63  1  0  0  0  0
 25 28  1  0  0  0  0
 25 64  1  0  0  0  0
 25 65  1  0  0  0  0
 26 34  1  0  0  0  0
 26 66  1  0  0  0  0
 26 67  1  0  0  0  0
 27 28  1  0  0  0  0
 27 36  1  0  0  0  0
 27 41  1  1  0  0  0
 28 68  1  0  0  0  0
 28 69  1  0  0  0  0
 29 70  1  0  0  0  0
 29 71  1  0  0  0  0
 29 72  1  0  0  0  0
 30 34  1  0  0  0  0
 30 73  1  0  0  0  0
 31 74  1  0  0  0  0
 32 75  1  0  0  0  0
 32 76  1  0  0  0  0
 32 77  1  0  0  0  0
 33 37  1  0  0  0  0
 33 42  1  0  0  0  0
 34 78  1  0  0  0  0
 34 79  1  0  0  0  0
 35 80  1  0  0  0  0
 35 81  1  0  0  0  0
 35 82  1  0  0  0  0
 36 40  1  0  0  0  0
 36 83  1  0  0  0  0
 36 84  1  0  0  0  0
 37 40  1  0  0  0  0
 37 43  1  6  0  0  0
 37 85  1  0  0  0  0
 38 86  1  0  0  0  0
 38 87  1  0  0  0  0
 38 88  1  0  0  0  0
 39 89  1  0  0  0  0
 39 90  1  0  0  0  0
 39 91  1  0  0  0  0
 40 92  1  0  0  0  0
 40 93  1  0  0  0  0
 42 94  1  0  0  0  0
 42 95  1  0  0  0  0
 42 96  1  0  0  0  0
 43 97  1  0  0  0  0
 43 98  1  0  0  0  0
 43 99  1  0  0  0  0
 44 45  1  0  0  0  0
 44101  1  0  0  0  0
 45 47  1  0  0  0  0
 45102  1  0  0  0  0
 46 48  1  0  0  0  0
 46103  1  0  0  0  0
 47 50  1  0  0  0  0
 47104  1  0  0  0  0
 48 51  1  0  0  0  0
 48105  1  0  0  0  0
 49 50  1  0  0  0  0
 49106  1  0  0  0  0
 49107  1  0  0  0  0
 50108  1  0  0  0  0
 51 53  1  0  0  0  0
 51110  1  0  0  0  0
 52 53  1  0  0  0  0
 52 54  1  1  0  0  0
 52111  1  0  0  0  0
 53112  1  0  0  0  0
 54116  1  0  0  0  0
 54117  1  0  0  0  0
M  END
> <PUBCHEM_COMPOUND_CID>
71609288

> <PUBCHEM_COMPOUND_CANONICALIZED>
1

> <PUBCHEM_CACTVS_COMPLEXITY>
1470

> <PUBCHEM_CACTVS_HBOND_ACCEPTOR>
13

> <PUBCHEM_CACTVS_HBOND_DONOR>
8

> <PUBCHEM_CACTVS_ROTATABLE_BOND>
6

> <PUBCHEM_CACTVS_SUBSKEYS>
AAADcfB8PAAAAAAAAAAAAAAAAAAAAAAAAAA0aMGCAAAAAADAAAAAGgAACAAAD1SwgAMCCAAABgCIAiDSCAAAAAAgAAAACAEAAAgREBIAAQAiQAAFwAAPAAPK6PyPgAAAAAAAAADAAAYAADAAAAAAAAAAAA==

> <PUBCHEM_IUPAC_OPENEYE_NAME>
[(2S,3R,4S,5S,6R)-3,4,5-trihydroxy-6-(hydroxymethyl)tetrahydropyran-2-yl] (1R,2R,4aS,6aR,6aS,6bR,8aR,10S,12aR,14bS)-1-hydroxy-1,2,6a,6b,9,9,12a-heptamethyl-10-[(2S,3R,4S,5S)-3,4,5-trihydroxytetrahydropyran-2-yl]oxy-2,3,4,5,6,6a,7,8,8a,10,11,12,13,14b-tetradecahydropicene-4a-carboxylate

> <PUBCHEM_IUPAC_CAS_NAME>
(1R,2R,4aS,6aR,6aS,6bR,8aR,10S,12aR,14bS)-1-hydroxy-1,2,6a,6b,9,9,12a-heptamethyl-10-[[(2S,3R,4S,5S)-3,4,5-trihydroxy-2-oxanyl]oxy]-2,3,4,5,6,6a,7,8,8a,10,11,12,13,14b-tetradecahydropicene-4a-carboxylic acid [(2S,3R,4S,5S,6R)-3,4,5-trihydroxy-6-(hydroxymethyl)-2-oxanyl] ester

> <PUBCHEM_IUPAC_NAME_MARKUP>
[(2<I>S</I>,3<I>R</I>,4<I>S</I>,5<I>S</I>,6<I>R</I>)-3,4,5-trihydroxy-6-(hydroxymethyl)oxan-2-yl] (1<I>R</I>,2<I>R</I>,4<I>a</I><I>S</I>,6<I>a</I><I>R</I>,6<I>a</I><I>S</I>,6<I>b</I><I>R</I>,8<I>a</I><I>R</I>,10<I>S</I>,12<I>a</I><I>R</I>,14<I>b</I><I>S</I>)-1-hydroxy-1,2,6<I>a</I>,6<I>b</I>,9,9,12<I>a</I>-heptamethyl-10-[(2<I>S</I>,3<I>R</I>,4<I>S</I>,5<I>S</I>)-3,4,5-trihydroxyoxan-2-yl]oxy-2,3,4,5,6,6<I>a</I>,7,8,8<I>a</I>,10,11,12,13,14<I>b</I>-tetradecahydropicene-4<I>a</I>-carboxylate

> <PUBCHEM_IUPAC_NAME>
[(2S,3R,4S,5S,6R)-3,4,5-trihydroxy-6-(hydroxymethyl)oxan-2-yl] (1R,2R,4aS,6aR,6aS,6bR,8aR,10S,12aR,14bS)-1-hydroxy-1,2,6a,6b,9,9,12a-heptamethyl-10-[(2S,3R,4S,5S)-3,4,5-trihydroxyoxan-2-yl]oxy-2,3,4,5,6,6a,7,8,8a,10,11,12,13,14b-tetradecahydropicene-4a-carboxylate

> <PUBCHEM_IUPAC_SYSTEMATIC_NAME>
[(2S,3R,4S,5S,6R)-6-(hydroxymethyl)-3,4,5-tris(oxidanyl)oxan-2-yl] (1R,2R,4aS,6aR,6aS,6bR,8aR,10S,12aR,14bS)-1,2,6a,6b,9,9,12a-heptamethyl-1-oxidanyl-10-[(2S,3R,4S,5S)-3,4,5-tris(oxidanyl)oxan-2-yl]oxy-2,3,4,5,6,6a,7,8,8a,10,11,12,13,14b-tetradecahydropicene-4a-carboxylate

> <PUBCHEM_IUPAC_TRADITIONAL_NAME>
(1R,2R,4aS,6aR,6aS,6bR,8aR,10S,12aR,14bS)-1-hydroxy-1,2,6a,6b,9,9,12a-heptamethyl-10-[(2S,3R,4S,5S)-3,4,5-trihydroxytetrahydropyran-2-yl]oxy-2,3,4,5,6,6a,7,8,8a,10,11,12,13,14b-tetradecahydropicene-4a-carboxylic acid [(2S,3R,4S,5S,6R)-3,4,5-trihydroxy-6-methylol-tetrahydropyran-2-yl] ester

> <PUBCHEM_IUPAC_INCHI>
InChI=1S/C41H66O13/c1-20-10-15-41(35(49)54-34-31(48)29(46)28(45)23(18-42)52-34)17-16-38(5)21(32(41)40(20,7)50)8-9-25-37(4)13-12-26(36(2,3)24(37)11-14-39(25,38)6)53-33-30(47)27(44)22(43)19-51-33/h8,20,22-34,42-48,50H,9-19H2,1-7H3/t20-,22+,23-,24+,25-,26+,27+,28-,29+,30-,31-,32-,33+,34+,37+,38-,39-,40-,41+/m1/s1

> <PUBCHEM_IUPAC_INCHIKEY>
WCHBFWOEFOZHMK-MLHVESHNSA-N

> <PUBCHEM_XLOGP3_AA>
2.6

> <PUBCHEM_EXACT_MASS>
766.450342

> <PUBCHEM_MOLECULAR_FORMULA>
C41H66O13

> <PUBCHEM_MOLECULAR_WEIGHT>
767

> <PUBCHEM_OPENEYE_CAN_SMILES>
CC1CCC2(CCC3(C(=CCC4C3(CCC5C4(CCC(C5(C)C)OC6C(C(C(CO6)O)O)O)C)C)C2C1(C)O)C)C(=O)OC7C(C(C(C(O7)CO)O)O)O

> <PUBCHEM_OPENEYE_ISO_SMILES>
C[C@@H]1CC[C@@]2(CC[C@@]3(C(=CC[C@H]4[C@]3(CC[C@@H]5[C@@]4(CC[C@@H](C5(C)C)O[C@H]6[C@@H]([C@H]([C@H](CO6)O)O)O)C)C)[C@@H]2[C@]1(C)O)C)C(=O)O[C@H]7[C@@H]([C@H]([C@@H]([C@H](O7)CO)O)O)O

> <PUBCHEM_CACTVS_TPSA>
216

> <PUBCHEM_MONOISOTOPIC_WEIGHT>
766.450342

> <PUBCHEM_TOTAL_CHARGE>
0

> <PUBCHEM_HEAVY_ATOM_COUNT>
54

> <PUBCHEM_ATOM_DEF_STEREO_COUNT>
19

> <PUBCHEM_ATOM_UDEF_STEREO_COUNT>
0

> <PUBCHEM_BOND_DEF_STEREO_COUNT>
0

> <PUBCHEM_BOND_UDEF_STEREO_COUNT>
0

> <PUBCHEM_ISOTOPIC_ATOM_COUNT>
0

> <PUBCHEM_COMPONENT_COUNT>
1

> <PUBCHEM_CACTVS_TAUTO_COUNT>
-1

> <PUBCHEM_COORDINATE_TYPE>
1
5
255

> <PUBCHEM_BONDANNOTATIONS>
30  1  5
44  1  5
50  10  5
51  11  5
53  12  6
14  29  5
15  55  6
16  32  5
17  35  6
18  56  6
33  2  6
23  61  5
27  41  5
46  3  5
37  43  6
52  54  5
45  7  6
47  8  5
48  9  6

$$$$
