87123354
  -OEChem-11202009262D

135137  0     1  0  0  0  0  0999 V2000
   13.0398    6.9440    0.0000 O   0  0  0  0  0  0  0  0  0  0  0  0
   14.4058    7.3100    0.0000 O   0  0  0  0  0  0  0  0  0  0  0  0
   12.8879   14.9483    0.0000 O   0  0  0  0  0  0  0  0  0  0  0  0
   13.5398    5.8100    0.0000 O   0  0  0  0  0  0  0  0  0  0  0  0
   11.5219   14.5823    0.0000 O   0  0  0  0  0  0  0  0  0  0  0  0
   12.3879   16.0823    0.0000 O   0  0  0  0  0  0  0  0  0  0  0  0
   13.0786    9.5313    0.0000 O   0  0  0  0  0  0  0  0  0  0  0  0
   11.0911    8.6464    0.0000 O   0  0  0  0  0  0  0  0  0  0  0  0
   12.8491   12.3610    0.0000 O   0  0  0  0  0  0  0  0  0  0  0  0
   12.6738    3.3100    0.0000 O   0  0  0  0  0  0  0  0  0  0  0  0
   14.8366   13.2459    0.0000 O   0  0  0  0  0  0  0  0  0  0  0  0
   16.1379    6.3100    0.0000 O   0  0  0  0  0  0  0  0  0  0  0  0
   16.1379    4.3100    0.0000 O   0  0  0  0  0  0  0  0  0  0  0  0
   14.4058    3.3100    0.0000 O   0  0  0  0  0  0  0  0  0  0  0  0
   10.9417    3.3100    0.0000 O   0  0  0  0  0  0  0  0  0  0  0  0
   14.0751    9.4573    0.0000 O   0  0  0  0  0  0  0  0  0  0  0  0
    9.7898   15.5823    0.0000 O   0  0  0  0  0  0  0  0  0  0  0  0
    9.7898   17.5823    0.0000 O   0  0  0  0  0  0  0  0  0  0  0  0
   11.8527   12.4350    0.0000 O   0  0  0  0  0  0  0  0  0  0  0  0
   11.5219   18.5823    0.0000 O   0  0  0  0  0  0  0  0  0  0  0  0
   10.3675    6.7918    0.0000 O   0  0  0  0  0  0  0  0  0  0  0  0
   15.5603   15.1005    0.0000 O   0  0  0  0  0  0  0  0  0  0  0  0
   12.6738    1.3100    0.0000 O   0  0  0  0  0  0  0  0  0  0  0  0
   10.9417    0.3100    0.0000 O   0  0  0  0  0  0  0  0  0  0  0  0
    9.2097    1.3100    0.0000 O   0  0  0  0  0  0  0  0  0  0  0  0
   13.2540   18.5823    0.0000 O   0  0  0  0  0  0  0  0  0  0  0  0
    9.2097    4.3100    0.0000 O   0  0  0  0  0  0  0  0  0  0  0  0
    3.1350    8.1962    0.0000 O   0  0  0  0  0  0  0  0  0  0  0  0
    4.0010   10.6962    0.0000 O   0  0  0  0  0  0  0  0  0  0  0  0
    2.2690   10.6962    0.0000 O   0  0  0  0  0  0  0  0  0  0  0  0
    4.8671    8.1962    0.0000 O   0  0  0  0  0  0  0  0  0  0  0  0
    0.5369    9.6962    0.0000 O   0  0  0  0  0  0  0  0  0  0  0  0
    6.5991    9.1962    0.0000 O   0  0  0  0  0  0  0  0  0  0  0  0
   13.5398    7.8100    0.0000 C   0  0  1  0  0  0  0  0  0  0  0  0
   12.8707    8.5531    0.0000 C   0  0  2  0  0  0  0  0  0  0  0  0
   12.3879   14.0823    0.0000 C   0  0  1  0  0  0  0  0  0  0  0  0
   11.9571    8.1464    0.0000 C   0  0  1  0  0  0  0  0  0  0  0  0
   12.0617    7.1519    0.0000 C   0  0  1  0  0  0  0  0  0  0  0  0
   13.0571   13.3392    0.0000 C   0  0  2  0  0  0  0  0  0  0  0  0
   14.4058    6.3100    0.0000 C   0  0  1  0  0  0  0  0  0  0  0  0
   13.9706   13.7459    0.0000 C   0  0  1  0  0  0  0  0  0  0  0  0
   15.2719    5.8100    0.0000 C   0  0  1  0  0  0  0  0  0  0  0  0
   15.2719    4.8100    0.0000 C   0  0  2  0  0  0  0  0  0  0  0  0
   13.5398    4.8100    0.0000 C   0  0  1  0  0  0  0  0  0  0  0  0
   13.8661   14.7404    0.0000 C   0  0  1  0  0  0  0  0  0  0  0  0
   14.4058    4.3100    0.0000 C   0  0  1  0  0  0  0  0  0  0  0  0
   11.5219   15.5823    0.0000 C   0  0  1  0  0  0  0  0  0  0  0  0
   14.2830    8.4791    0.0000 C   0  0  0  0  0  0  0  0  0  0  0  0
   10.6559   16.0823    0.0000 C   0  0  1  0  0  0  0  0  0  0  0  0
   10.6559   17.0823    0.0000 C   0  0  2  0  0  0  0  0  0  0  0  0
   11.6448   13.4132    0.0000 C   0  0  0  0  0  0  0  0  0  0  0  0
   11.5219   17.5823    0.0000 C   0  0  1  0  0  0  0  0  0  0  0  0
   12.6738    4.3100    0.0000 C   0  0  0  0  0  0  0  0  0  0  0  0
   12.3879   17.0823    0.0000 C   0  0  1  0  0  0  0  0  0  0  0  0
   11.3185    6.4828    0.0000 C   0  0  0  0  0  0  0  0  0  0  0  0
   14.6092   15.4096    0.0000 C   0  0  0  0  0  0  0  0  0  0  0  0
   11.8078    2.8100    0.0000 C   0  0  1  0  0  0  0  0  0  0  0  0
   11.8078    1.8100    0.0000 C   0  0  1  0  0  0  0  0  0  0  0  0
   10.9417    1.3100    0.0000 C   0  0  2  0  0  0  0  0  0  0  0  0
   10.0757    1.8100    0.0000 C   0  0  2  0  0  0  0  0  0  0  0  0
   10.0757    2.8100    0.0000 C   0  0  1  0  0  0  0  0  0  0  0  0
   13.2540   17.5823    0.0000 C   0  0  0  0  0  0  0  0  0  0  0  0
    9.2097    3.3100    0.0000 C   0  0  0  0  0  0  0  0  0  0  0  0
    3.1350    9.1962    0.0000 C   0  0  1  0  0  0  0  0  0  0  0  0
    4.0010    9.6962    0.0000 C   0  0  1  0  0  0  0  0  0  0  0  0
    2.2690    9.6962    0.0000 C   0  0  1  0  0  0  0  0  0  0  0  0
    4.8671    9.1962    0.0000 C   0  0  2  0  0  0  0  0  0  0  0  0
    1.4030    9.1962    0.0000 C   0  0  0  0  0  0  0  0  0  0  0  0
    5.7331    9.6962    0.0000 C   0  0  0  0  0  0  0  0  0  0  0  0
   13.4696    8.7136    0.0000 H   0  0  0  0  0  0  0  0  0  0  0  0
   11.9896    8.7656    0.0000 H   0  0  0  0  0  0  0  0  0  0  0  0
   12.2221    6.5530    0.0000 H   0  0  0  0  0  0  0  0  0  0  0  0
   12.4582   13.1787    0.0000 H   0  0  0  0  0  0  0  0  0  0  0  0
   13.8689    6.6200    0.0000 H   0  0  0  0  0  0  0  0  0  0  0  0
   13.9382   13.1267    0.0000 H   0  0  0  0  0  0  0  0  0  0  0  0
   15.2719    6.4300    0.0000 H   0  0  0  0  0  0  0  0  0  0  0  0
   15.8088    5.1200    0.0000 H   0  0  0  0  0  0  0  0  0  0  0  0
   13.0029    5.1200    0.0000 H   0  0  0  0  0  0  0  0  0  0  0  0
   13.7056   15.3393    0.0000 H   0  0  0  0  0  0  0  0  0  0  0  0
   14.9428    4.0000    0.0000 H   0  0  0  0  0  0  0  0  0  0  0  0
   10.9850   15.2723    0.0000 H   0  0  0  0  0  0  0  0  0  0  0  0
   14.6115    7.9533    0.0000 H   0  0  0  0  0  0  0  0  0  0  0  0
   14.8578    8.7114    0.0000 H   0  0  0  0  0  0  0  0  0  0  0  0
   10.1189   16.3923    0.0000 H   0  0  0  0  0  0  0  0  0  0  0  0
   10.6559   17.7023    0.0000 H   0  0  0  0  0  0  0  0  0  0  0  0
   11.3162   13.9390    0.0000 H   0  0  0  0  0  0  0  0  0  0  0  0
   11.0699   13.1809    0.0000 H   0  0  0  0  0  0  0  0  0  0  0  0
   10.9850   17.8923    0.0000 H   0  0  0  0  0  0  0  0  0  0  0  0
   12.4617    4.8926    0.0000 H   0  0  0  0  0  0  0  0  0  0  0  0
   12.0632    4.2023    0.0000 H   0  0  0  0  0  0  0  0  0  0  0  0
   12.9249   16.7723    0.0000 H   0  0  0  0  0  0  0  0  0  0  0  0
   11.0275    5.9353    0.0000 H   0  0  0  0  0  0  0  0  0  0  0  0
   11.8071    6.1010    0.0000 H   0  0  0  0  0  0  0  0  0  0  0  0
   14.9003   15.9570    0.0000 H   0  0  0  0  0  0  0  0  0  0  0  0
   14.1207   15.7913    0.0000 H   0  0  0  0  0  0  0  0  0  0  0  0
   11.8078    3.4300    0.0000 H   0  0  0  0  0  0  0  0  0  0  0  0
   12.6179    9.9462    0.0000 H   0  0  0  0  0  0  0  0  0  0  0  0
   11.8078    1.1900    0.0000 H   0  0  0  0  0  0  0  0  0  0  0  0
   11.0911    9.2664    0.0000 H   0  0  0  0  0  0  0  0  0  0  0  0
   10.4048    1.0000    0.0000 H   0  0  0  0  0  0  0  0  0  0  0  0
   10.0757    1.1900    0.0000 H   0  0  0  0  0  0  0  0  0  0  0  0
   13.3099   11.9462    0.0000 H   0  0  0  0  0  0  0  0  0  0  0  0
   10.0757    3.4300    0.0000 H   0  0  0  0  0  0  0  0  0  0  0  0
   14.8366   12.6259    0.0000 H   0  0  0  0  0  0  0  0  0  0  0  0
   16.6748    6.0000    0.0000 H   0  0  0  0  0  0  0  0  0  0  0  0
   13.4660   16.9997    0.0000 H   0  0  0  0  0  0  0  0  0  0  0  0
   13.8645   17.6900    0.0000 H   0  0  0  0  0  0  0  0  0  0  0  0
   16.1379    3.6900    0.0000 H   0  0  0  0  0  0  0  0  0  0  0  0
   14.9428    3.0000    0.0000 H   0  0  0  0  0  0  0  0  0  0  0  0
   14.5358    9.8721    0.0000 H   0  0  0  0  0  0  0  0  0  0  0  0
    9.2529   15.8923    0.0000 H   0  0  0  0  0  0  0  0  0  0  0  0
    9.7898   18.2023    0.0000 H   0  0  0  0  0  0  0  0  0  0  0  0
   11.3919   12.0202    0.0000 H   0  0  0  0  0  0  0  0  0  0  0  0
   10.9850   18.8923    0.0000 H   0  0  0  0  0  0  0  0  0  0  0  0
    9.9067    6.3769    0.0000 H   0  0  0  0  0  0  0  0  0  0  0  0
    8.5991    3.4177    0.0000 H   0  0  0  0  0  0  0  0  0  0  0  0
    8.9976    2.7274    0.0000 H   0  0  0  0  0  0  0  0  0  0  0  0
   16.0210   15.5154    0.0000 H   0  0  0  0  0  0  0  0  0  0  0  0
   13.2107    1.6200    0.0000 H   0  0  0  0  0  0  0  0  0  0  0  0
   10.4048    0.0000    0.0000 H   0  0  0  0  0  0  0  0  0  0  0  0
    8.6728    1.6200    0.0000 H   0  0  0  0  0  0  0  0  0  0  0  0
   13.7909   18.8923    0.0000 H   0  0  0  0  0  0  0  0  0  0  0  0
    8.6728    4.6200    0.0000 H   0  0  0  0  0  0  0  0  0  0  0  0
    3.6720    8.8862    0.0000 H   0  0  0  0  0  0  0  0  0  0  0  0
    4.5380   10.0062    0.0000 H   0  0  0  0  0  0  0  0  0  0  0  0
    1.7320   10.0062    0.0000 H   0  0  0  0  0  0  0  0  0  0  0  0
    5.4040    8.8862    0.0000 H   0  0  0  0  0  0  0  0  0  0  0  0
    1.0044    8.7212    0.0000 H   0  0  0  0  0  0  0  0  0  0  0  0
    1.8015    8.7212    0.0000 H   0  0  0  0  0  0  0  0  0  0  0  0
    2.5981    7.8862    0.0000 H   0  0  0  0  0  0  0  0  0  0  0  0
    4.5380   11.0062    0.0000 H   0  0  0  0  0  0  0  0  0  0  0  0
    1.7320   11.0062    0.0000 H   0  0  0  0  0  0  0  0  0  0  0  0
    5.7331   10.3162    0.0000 H   0  0  0  0  0  0  0  0  0  0  0  0
    5.4040    7.8862    0.0000 H   0  0  0  0  0  0  0  0  0  0  0  0
    0.0000    9.3862    0.0000 H   0  0  0  0  0  0  0  0  0  0  0  0
  1 34  1  0  0  0  0
  1 38  1  0  0  0  0
 34  2  1  6  0  0  0
 40  2  1  6  0  0  0
  3 36  1  0  0  0  0
  3 45  1  0  0  0  0
  4 40  1  0  0  0  0
  4 44  1  0  0  0  0
 36  5  1  6  0  0  0
 47  5  1  6  0  0  0
  6 47  1  0  0  0  0
  6 54  1  0  0  0  0
 35  7  1  6  0  0  0
  7 97  1  0  0  0  0
 37  8  1  1  0  0  0
  8 99  1  0  0  0  0
 39  9  1  6  0  0  0
  9102  1  0  0  0  0
 10 53  1  0  0  0  0
 57 10  1  6  0  0  0
 41 11  1  1  0  0  0
 11104  1  0  0  0  0
 42 12  1  6  0  0  0
 12105  1  0  0  0  0
 43 13  1  1  0  0  0
 13108  1  0  0  0  0
 46 14  1  6  0  0  0
 14109  1  0  0  0  0
 15 57  1  0  0  0  0
 15 61  1  0  0  0  0
 16 48  1  0  0  0  0
 16110  1  0  0  0  0
 49 17  1  6  0  0  0
 17111  1  0  0  0  0
 50 18  1  1  0  0  0
 18112  1  0  0  0  0
 19 51  1  0  0  0  0
 19113  1  0  0  0  0
 52 20  1  6  0  0  0
 20114  1  0  0  0  0
 21 55  1  0  0  0  0
 21115  1  0  0  0  0
 22 56  1  0  0  0  0
 22118  1  0  0  0  0
 58 23  1  6  0  0  0
 23119  1  0  0  0  0
 59 24  1  1  0  0  0
 24120  1  0  0  0  0
 60 25  1  1  0  0  0
 25121  1  0  0  0  0
 26 62  1  0  0  0  0
 26122  1  0  0  0  0
 27 63  1  0  0  0  0
 27123  1  0  0  0  0
 64 28  1  6  0  0  0
 28130  1  0  0  0  0
 65 29  1  6  0  0  0
 29131  1  0  0  0  0
 66 30  1  1  0  0  0
 30132  1  0  0  0  0
 67 31  1  6  0  0  0
 31134  1  0  0  0  0
 32 68  1  0  0  0  0
 32135  1  0  0  0  0
 33 69  2  0  0  0  0
 34 35  1  0  0  0  0
 34 48  1  0  0  0  0
 35 37  1  0  0  0  0
 35 70  1  0  0  0  0
 36 39  1  0  0  0  0
 36 51  1  0  0  0  0
 37 38  1  0  0  0  0
 37 71  1  0  0  0  0
 38 55  1  6  0  0  0
 38 72  1  0  0  0  0
 39 41  1  0  0  0  0
 39 73  1  0  0  0  0
 40 42  1  0  0  0  0
 40 74  1  0  0  0  0
 41 45  1  0  0  0  0
 41 75  1  0  0  0  0
 42 43  1  0  0  0  0
 42 76  1  0  0  0  0
 43 46  1  0  0  0  0
 43 77  1  0  0  0  0
 44 46  1  0  0  0  0
 44 53  1  1  0  0  0
 44 78  1  0  0  0  0
 45 56  1  6  0  0  0
 45 79  1  0  0  0  0
 46 80  1  0  0  0  0
 47 49  1  0  0  0  0
 47 81  1  0  0  0  0
 48 82  1  0  0  0  0
 48 83  1  0  0  0  0
 49 50  1  0  0  0  0
 49 84  1  0  0  0  0
 50 52  1  0  0  0  0
 50 85  1  0  0  0  0
 51 86  1  0  0  0  0
 51 87  1  0  0  0  0
 52 54  1  0  0  0  0
 52 88  1  0  0  0  0
 53 89  1  0  0  0  0
 53 90  1  0  0  0  0
 54 62  1  1  0  0  0
 54 91  1  0  0  0  0
 55 92  1  0  0  0  0
 55 93  1  0  0  0  0
 56 94  1  0  0  0  0
 56 95  1  0  0  0  0
 57 58  1  0  0  0  0
 57 96  1  0  0  0  0
 58 59  1  0  0  0  0
 58 98  1  0  0  0  0
 59 60  1  0  0  0  0
 59100  1  0  0  0  0
 60 61  1  0  0  0  0
 60101  1  0  0  0  0
 61 63  1  1  0  0  0
 61103  1  0  0  0  0
 62106  1  0  0  0  0
 62107  1  0  0  0  0
 63116  1  0  0  0  0
 63117  1  0  0  0  0
 64 65  1  0  0  0  0
 64 66  1  0  0  0  0
 64124  1  0  0  0  0
 65 67  1  0  0  0  0
 65125  1  0  0  0  0
 66 68  1  0  0  0  0
 66126  1  0  0  0  0
 67 69  1  0  0  0  0
 67127  1  0  0  0  0
 68128  1  0  0  0  0
 68129  1  0  0  0  0
 69133  1  0  0  0  0
M  END
> <PUBCHEM_COMPOUND_CID>
87123354

> <PUBCHEM_COMPOUND_CANONICALIZED>
1

> <PUBCHEM_CACTVS_COMPLEXITY>
1190

> <PUBCHEM_CACTVS_HBOND_ACCEPTOR>
33

> <PUBCHEM_CACTVS_HBOND_DONOR>
24

> <PUBCHEM_CACTVS_ROTATABLE_BOND>
18

> <PUBCHEM_CACTVS_SUBSKEYS>
AAADcfB8PgAAAAAAAAAAAAAAAAAAASJAAAAkSJAAAAAAAAAAAAAAGgAACAAACBSwgAMACAAABgAIAAgQgAIAAAAAAAAAAAFAAAAREBYAAAAiQAAFIAAHAAHKbAxAAAAAAAAAAAAAAAAAAAAAAAAAAAAAAA==

> <PUBCHEM_IUPAC_OPENEYE_NAME>
(2R,3R,4S,5S,6R)-2-[(2S,3S,4S,5R)-3,4-dihydroxy-2,5-bis(hydroxymethyl)tetrahydrofuran-2-yl]oxy-6-(hydroxymethyl)tetrahydropyran-3,4,5-triol;(2S,3R,4S,5R,6R)-2-[[(2R,3S,4S,5R,6R)-6-[(2S,3S,4S,5R)-3,4-dihydroxy-2,5-bis(hydroxymethyl)tetrahydrofuran-2-yl]oxy-3,4,5-trihydroxy-tetrahydropyran-2-yl]methoxy]-6-(hydroxymethyl)tetrahydropyran-3,4,5-triol;(2R,3S,4R,5R)-2,3,4,5,6-pentahydroxyhexanal

> <PUBCHEM_IUPAC_CAS_NAME>
(2R,3R,4S,5S,6R)-2-[[(2S,3S,4S,5R)-3,4-dihydroxy-2,5-bis(hydroxymethyl)-2-oxolanyl]oxy]-6-(hydroxymethyl)oxane-3,4,5-triol;(2S,3R,4S,5R,6R)-2-[[(2R,3S,4S,5R,6R)-6-[[(2S,3S,4S,5R)-3,4-dihydroxy-2,5-bis(hydroxymethyl)-2-oxolanyl]oxy]-3,4,5-trihydroxy-2-oxanyl]methoxy]-6-(hydroxymethyl)oxane-3,4,5-triol;(2R,3S,4R,5R)-2,3,4,5,6-pentahydroxyhexanal

> <PUBCHEM_IUPAC_NAME_MARKUP>
(2<I>R</I>,3<I>R</I>,4<I>S</I>,5<I>S</I>,6<I>R</I>)-2-[(2<I>S</I>,3<I>S</I>,4<I>S</I>,5<I>R</I>)-3,4-dihydroxy-2,5-bis(hydroxymethyl)oxolan-2-yl]oxy-6-(hydroxymethyl)oxane-3,4,5-triol;(2<I>S</I>,3<I>R</I>,4<I>S</I>,5<I>R</I>,6<I>R</I>)-2-[[(2<I>R</I>,3<I>S</I>,4<I>S</I>,5<I>R</I>,6<I>R</I>)-6-[(2<I>S</I>,3<I>S</I>,4<I>S</I>,5<I>R</I>)-3,4-dihydroxy-2,5-bis(hydroxymethyl)oxolan-2-yl]oxy-3,4,5-trihydroxyoxan-2-yl]methoxy]-6-(hydroxymethyl)oxane-3,4,5-triol;(2<I>R</I>,3<I>S</I>,4<I>R</I>,5<I>R</I>)-2,3,4,5,6-pentahydroxyhexanal

> <PUBCHEM_IUPAC_NAME>
(2R,3R,4S,5S,6R)-2-[(2S,3S,4S,5R)-3,4-dihydroxy-2,5-bis(hydroxymethyl)oxolan-2-yl]oxy-6-(hydroxymethyl)oxane-3,4,5-triol;(2S,3R,4S,5R,6R)-2-[[(2R,3S,4S,5R,6R)-6-[(2S,3S,4S,5R)-3,4-dihydroxy-2,5-bis(hydroxymethyl)oxolan-2-yl]oxy-3,4,5-trihydroxyoxan-2-yl]methoxy]-6-(hydroxymethyl)oxane-3,4,5-triol;(2R,3S,4R,5R)-2,3,4,5,6-pentahydroxyhexanal

> <PUBCHEM_IUPAC_SYSTEMATIC_NAME>
(2R,3R,4S,5S,6R)-2-[(2S,3S,4S,5R)-2,5-bis(hydroxymethyl)-3,4-bis(oxidanyl)oxolan-2-yl]oxy-6-(hydroxymethyl)oxane-3,4,5-triol;(2S,3R,4S,5R,6R)-2-[[(2R,3S,4S,5R,6R)-6-[(2S,3S,4S,5R)-2,5-bis(hydroxymethyl)-3,4-bis(oxidanyl)oxolan-2-yl]oxy-3,4,5-tris(oxidanyl)oxan-2-yl]methoxy]-6-(hydroxymethyl)oxane-3,4,5-triol;(2R,3S,4R,5R)-2,3,4,5,6-pentakis(oxidanyl)hexanal

> <PUBCHEM_IUPAC_TRADITIONAL_NAME>
(2R,3R,4S,5S,6R)-2-[(2S,3S,4S,5R)-3,4-dihydroxy-2,5-dimethylol-tetrahydrofuran-2-yl]oxy-6-methylol-tetrahydropyran-3,4,5-triol;(2S,3R,4S,5R,6R)-2-[[(2R,3S,4S,5R,6R)-6-[(2S,3S,4S,5R)-3,4-dihydroxy-2,5-dimethylol-tetrahydrofuran-2-yl]oxy-3,4,5-trihydroxy-tetrahydropyran-2-yl]methoxy]-6-methylol-tetrahydropyran-3,4,5-triol;(2R,3S,4R,5R)-2,3,4,5,6-pentahydroxyhexanal

> <PUBCHEM_IUPAC_INCHI>
InChI=1S/C18H32O16.C12H22O11.C6H12O6/c19-1-5-8(22)11(25)13(27)16(31-5)30-3-7-9(23)12(26)14(28)17(32-7)34-18(4-21)15(29)10(24)6(2-20)33-18;13-1-4-6(16)8(18)9(19)11(21-4)23-12(3-15)10(20)7(17)5(2-14)22-12;7-1-3(9)5(11)6(12)4(10)2-8/h5-17,19-29H,1-4H2;4-11,13-20H,1-3H2;1,3-6,8-12H,2H2/t5-,6-,7-,8+,9-,10-,11+,12+,13-,14-,15+,16+,17-,18+;4-,5-,6-,7-,8+,9-,10+,11-,12+;3-,4+,5+,6+/m110/s1

> <PUBCHEM_IUPAC_INCHIKEY>
OCJVKIRZMZDYNK-YWTCXOJPSA-N

> <PUBCHEM_EXACT_MASS>
1026.348635

> <PUBCHEM_MOLECULAR_FORMULA>
C36H66O33

> <PUBCHEM_MOLECULAR_WEIGHT>
1026.9

> <PUBCHEM_OPENEYE_CAN_SMILES>
C(C1C(C(C(C(O1)OCC2C(C(C(C(O2)OC3(C(C(C(O3)CO)O)O)CO)O)O)O)O)O)O)O.C(C1C(C(C(C(O1)OC2(C(C(C(O2)CO)O)O)CO)O)O)O)O.C(C(C(C(C(C=O)O)O)O)O)O

> <PUBCHEM_OPENEYE_ISO_SMILES>
C([C@@H]1[C@@H]([C@@H]([C@H]([C@H](O1)OC[C@@H]2[C@H]([C@@H]([C@H]([C@H](O2)O[C@]3([C@H]([C@@H]([C@H](O3)CO)O)O)CO)O)O)O)O)O)O)O.C([C@@H]1[C@H]([C@@H]([C@H]([C@H](O1)O[C@]2([C@H]([C@@H]([C@H](O2)CO)O)O)CO)O)O)O)O.C([C@H]([C@H]([C@@H]([C@H](C=O)O)O)O)O)O

> <PUBCHEM_CACTVS_TPSA>
576

> <PUBCHEM_MONOISOTOPIC_WEIGHT>
1026.348635

> <PUBCHEM_TOTAL_CHARGE>
0

> <PUBCHEM_HEAVY_ATOM_COUNT>
69

> <PUBCHEM_ATOM_DEF_STEREO_COUNT>
27

> <PUBCHEM_ATOM_UDEF_STEREO_COUNT>
0

> <PUBCHEM_BOND_DEF_STEREO_COUNT>
0

> <PUBCHEM_BOND_UDEF_STEREO_COUNT>
0

> <PUBCHEM_ISOTOPIC_ATOM_COUNT>
0

> <PUBCHEM_COMPONENT_COUNT>
3

> <PUBCHEM_CACTVS_TAUTO_COUNT>
-1

> <PUBCHEM_COORDINATE_TYPE>
1
5
255

> <PUBCHEM_BONDANNOTATIONS>
57  10  6
41  11  5
42  12  6
43  13  5
46  14  6
49  17  6
50  18  5
34  2  6
40  2  6
52  20  6
58  23  6
59  24  5
60  25  5
64  28  6
65  29  6
66  30  5
67  31  6
38  55  6
44  53  5
45  56  6
36  5  6
47  5  6
54  62  5
61  63  5
35  7  6
37  8  5
39  9  6

$$$$
