101482745
  -OEChem-11222012062D

 94100  0     1  0  0  0  0  0999 V2000
   10.0450    5.2797    0.0000 O   0  0  0  0  0  0  0  0  0  0  0  0
   11.6876    5.8301    0.0000 O   0  0  0  0  0  0  0  0  0  0  0  0
   11.6459    0.4694    0.0000 O   0  0  0  0  0  0  0  0  0  0  0  0
   13.6481    2.7595    0.0000 O   0  0  0  0  0  0  0  0  0  0  0  0
    7.7331    0.0153    0.0000 O   0  0  0  0  0  0  0  0  0  0  0  0
    6.0010    0.0153    0.0000 O   0  0  0  0  0  0  0  0  0  0  0  0
    6.0010   -2.9848    0.0000 O   0  0  0  0  0  0  0  0  0  0  0  0
    4.2690   -2.9848    0.0000 O   0  0  0  0  0  0  0  0  0  0  0  0
    6.0010   -4.9848    0.0000 O   0  0  0  0  0  0  0  0  0  0  0  0
    4.2690   -5.9848    0.0000 O   0  0  0  0  0  0  0  0  0  0  0  0
    2.5369   -4.9848    0.0000 O   0  0  0  0  0  0  0  0  0  0  0  0
    2.5369   -1.9848    0.0000 O   0  0  0  0  0  0  0  0  0  0  0  0
   10.6814    3.3832    0.0000 C   0  0  1  0  0  0  0  0  0  0  0  0
    9.9798    2.6132    0.0000 C   0  0  1  0  0  0  0  0  0  0  0  0
   11.6614    3.1845    0.0000 C   0  0  1  0  0  0  0  0  0  0  0  0
   10.3034    1.6232    0.0000 C   0  0  1  0  0  0  0  0  0  0  0  0
   10.3634    4.3312    0.0000 C   0  0  1  0  0  0  0  0  0  0  0  0
   11.0255    5.0807    0.0000 C   0  0  1  0  0  0  0  0  0  0  0  0
   12.3235    3.9339    0.0000 C   0  0  1  0  0  0  0  0  0  0  0  0
   12.0056    4.8820    0.0000 C   0  0  1  0  0  0  0  0  0  0  0  0
    9.4651    1.0152    0.0000 C   0  0  2  0  0  0  0  0  0  0  0  0
   11.3242    1.4162    0.0000 C   0  0  2  0  0  0  0  0  0  0  0  0
   12.0079    2.2021    0.0000 C   0  0  0  0  0  0  0  0  0  0  0  0
    8.9443    2.6088    0.0000 C   0  0  0  0  0  0  0  0  0  0  0  0
    8.6269    1.6232    0.0000 C   0  0  0  0  0  0  0  0  0  0  0  0
   10.6140    0.6726    0.0000 C   0  0  0  0  0  0  0  0  0  0  0  0
   12.6831    5.6732    0.0000 C   0  0  0  0  0  0  0  0  0  0  0  0
    9.4651    0.0153    0.0000 C   0  0  1  0  0  0  0  0  0  0  0  0
   12.6415    2.9858    0.0000 C   0  0  0  0  0  0  0  0  0  0  0  0
   13.3411    3.7112    0.0000 C   0  0  0  0  0  0  0  0  0  0  0  0
   13.7055    5.4741    0.0000 C   0  0  0  0  0  0  0  0  0  0  0  0
    8.5991   -0.4847    0.0000 C   0  0  1  0  0  0  0  0  0  0  0  0
   14.0367    4.4865    0.0000 C   0  0  0  0  0  0  0  0  0  0  0  0
   10.3312   -0.4847    0.0000 C   0  0  0  0  0  0  0  0  0  0  0  0
    8.5991   -1.4848    0.0000 C   0  0  0  0  0  0  0  0  0  0  0  0
    7.7331   -1.9848    0.0000 C   0  0  0  0  0  0  0  0  0  0  0  0
    6.8671   -0.4847    0.0000 C   0  0  0  0  0  0  0  0  0  0  0  0
    6.8671   -1.4848    0.0000 C   0  0  0  0  0  0  0  0  0  0  0  0
    7.7331   -2.9848    0.0000 C   0  0  0  0  0  0  0  0  0  0  0  0
    6.0010   -1.9848    0.0000 C   0  0  0  0  0  0  0  0  0  0  0  0
    5.1350   -3.4848    0.0000 C   0  0  2  0  0  0  0  0  0  0  0  0
    5.1350   -4.4848    0.0000 C   0  0  1  0  0  0  0  0  0  0  0  0
    4.2690   -4.9848    0.0000 C   0  0  2  0  0  0  0  0  0  0  0  0
    3.4030   -3.4848    0.0000 C   0  0  1  0  0  0  0  0  0  0  0  0
    3.4030   -4.4848    0.0000 C   0  0  1  0  0  0  0  0  0  0  0  0
    2.5369   -2.9848    0.0000 C   0  0  0  0  0  0  0  0  0  0  0  0
   11.2442    4.0202    0.0000 H   0  0  0  0  0  0  0  0  0  0  0  0
    9.6347    3.3900    0.0000 H   0  0  0  0  0  0  0  0  0  0  0  0
   12.4958    3.0220    0.0000 H   0  0  0  0  0  0  0  0  0  0  0  0
    9.7756    4.1340    0.0000 H   0  0  0  0  0  0  0  0  0  0  0  0
   11.1487    5.6883    0.0000 H   0  0  0  0  0  0  0  0  0  0  0  0
    8.7080    0.6290    0.0000 H   0  0  0  0  0  0  0  0  0  0  0  0
   11.9326    1.2966    0.0000 H   0  0  0  0  0  0  0  0  0  0  0  0
   12.3991    1.7212    0.0000 H   0  0  0  0  0  0  0  0  0  0  0  0
   12.5487    2.5053    0.0000 H   0  0  0  0  0  0  0  0  0  0  0  0
    9.0068    3.2256    0.0000 H   0  0  0  0  0  0  0  0  0  0  0  0
    8.3375    2.7358    0.0000 H   0  0  0  0  0  0  0  0  0  0  0  0
    8.0600    1.8742    0.0000 H   0  0  0  0  0  0  0  0  0  0  0  0
    8.3177    1.0858    0.0000 H   0  0  0  0  0  0  0  0  0  0  0  0
   10.0247    0.4800    0.0000 H   0  0  0  0  0  0  0  0  0  0  0  0
   10.8066    0.0833    0.0000 H   0  0  0  0  0  0  0  0  0  0  0  0
   11.2034    0.8652    0.0000 H   0  0  0  0  0  0  0  0  0  0  0  0
   12.9040    6.2525    0.0000 H   0  0  0  0  0  0  0  0  0  0  0  0
   12.1501    5.9899    0.0000 H   0  0  0  0  0  0  0  0  0  0  0  0
   10.0021    0.3253    0.0000 H   0  0  0  0  0  0  0  0  0  0  0  0
   12.0537    2.7887    0.0000 H   0  0  0  0  0  0  0  0  0  0  0  0
   12.8387    2.3980    0.0000 H   0  0  0  0  0  0  0  0  0  0  0  0
   13.2293    3.1830    0.0000 H   0  0  0  0  0  0  0  0  0  0  0  0
   12.0981    6.2947    0.0000 H   0  0  0  0  0  0  0  0  0  0  0  0
   12.2540    0.3485    0.0000 H   0  0  0  0  0  0  0  0  0  0  0  0
   14.1142    5.9403    0.0000 H   0  0  0  0  0  0  0  0  0  0  0  0
    8.5991    0.3653    0.0000 H   0  0  0  0  0  0  0  0  0  0  0  0
   14.6439    4.3610    0.0000 H   0  0  0  0  0  0  0  0  0  0  0  0
   10.0212   -1.0217    0.0000 H   0  0  0  0  0  0  0  0  0  0  0  0
   10.8681   -0.7947    0.0000 H   0  0  0  0  0  0  0  0  0  0  0  0
   10.6412    0.0522    0.0000 H   0  0  0  0  0  0  0  0  0  0  0  0
    8.8112   -2.0674    0.0000 H   0  0  0  0  0  0  0  0  0  0  0  0
    9.2097   -1.3771    0.0000 H   0  0  0  0  0  0  0  0  0  0  0  0
    7.1131   -2.9848    0.0000 H   0  0  0  0  0  0  0  0  0  0  0  0
    7.7331   -3.6048    0.0000 H   0  0  0  0  0  0  0  0  0  0  0  0
    8.3531   -2.9848    0.0000 H   0  0  0  0  0  0  0  0  0  0  0  0
    5.7890   -1.4021    0.0000 H   0  0  0  0  0  0  0  0  0  0  0  0
    5.3905   -2.0924    0.0000 H   0  0  0  0  0  0  0  0  0  0  0  0
    5.1350   -2.8648    0.0000 H   0  0  0  0  0  0  0  0  0  0  0  0
    5.1350   -5.1048    0.0000 H   0  0  0  0  0  0  0  0  0  0  0  0
    3.7320   -5.2947    0.0000 H   0  0  0  0  0  0  0  0  0  0  0  0
    3.4030   -2.8648    0.0000 H   0  0  0  0  0  0  0  0  0  0  0  0
    3.4030   -5.1048    0.0000 H   0  0  0  0  0  0  0  0  0  0  0  0
    6.5380   -4.6748    0.0000 H   0  0  0  0  0  0  0  0  0  0  0  0
    1.9264   -2.8771    0.0000 H   0  0  0  0  0  0  0  0  0  0  0  0
    2.3249   -3.5674    0.0000 H   0  0  0  0  0  0  0  0  0  0  0  0
    3.7320   -6.2947    0.0000 H   0  0  0  0  0  0  0  0  0  0  0  0
    2.0000   -4.6748    0.0000 H   0  0  0  0  0  0  0  0  0  0  0  0
    2.0000   -1.6748    0.0000 H   0  0  0  0  0  0  0  0  0  0  0  0
 17  1  1  6  0  0  0
 18  1  1  6  0  0  0
 20  2  1  6  0  0  0
  2 69  1  0  0  0  0
 22  3  1  6  0  0  0
  3 70  1  0  0  0  0
  4 30  2  0  0  0  0
  5 32  1  0  0  0  0
  5 37  1  0  0  0  0
  6 37  2  0  0  0  0
  7 40  1  0  0  0  0
 41  7  1  1  0  0  0
  8 41  1  0  0  0  0
  8 44  1  0  0  0  0
 42  9  1  6  0  0  0
  9 89  1  0  0  0  0
 43 10  1  1  0  0  0
 10 92  1  0  0  0  0
 45 11  1  6  0  0  0
 11 93  1  0  0  0  0
 12 46  1  0  0  0  0
 12 94  1  0  0  0  0
 13 14  1  0  0  0  0
 13 15  1  0  0  0  0
 13 17  1  0  0  0  0
 13 47  1  1  0  0  0
 14 16  1  0  0  0  0
 14 24  1  0  0  0  0
 14 48  1  6  0  0  0
 15 19  1  0  0  0  0
 15 23  1  0  0  0  0
 15 49  1  6  0  0  0
 16 21  1  0  0  0  0
 16 22  1  0  0  0  0
 16 26  1  1  0  0  0
 17 18  1  0  0  0  0
 17 50  1  0  0  0  0
 18 20  1  0  0  0  0
 18 51  1  0  0  0  0
 19 20  1  0  0  0  0
 19 29  1  1  0  0  0
 19 30  1  0  0  0  0
 20 27  1  0  0  0  0
 21 25  1  0  0  0  0
 21 28  1  0  0  0  0
 21 52  1  6  0  0  0
 22 23  1  0  0  0  0
 22 53  1  0  0  0  0
 23 54  1  0  0  0  0
 23 55  1  0  0  0  0
 24 25  1  0  0  0  0
 24 56  1  0  0  0  0
 24 57  1  0  0  0  0
 25 58  1  0  0  0  0
 25 59  1  0  0  0  0
 26 60  1  0  0  0  0
 26 61  1  0  0  0  0
 26 62  1  0  0  0  0
 27 31  1  0  0  0  0
 27 63  1  0  0  0  0
 27 64  1  0  0  0  0
 28 32  1  0  0  0  0
 28 34  1  6  0  0  0
 28 65  1  0  0  0  0
 29 66  1  0  0  0  0
 29 67  1  0  0  0  0
 29 68  1  0  0  0  0
 30 33  1  0  0  0  0
 31 33  2  0  0  0  0
 31 71  1  0  0  0  0
 32 35  1  0  0  0  0
 32 72  1  6  0  0  0
 33 73  1  0  0  0  0
 34 74  1  0  0  0  0
 34 75  1  0  0  0  0
 34 76  1  0  0  0  0
 35 36  1  0  0  0  0
 35 77  1  0  0  0  0
 35 78  1  0  0  0  0
 36 38  2  0  0  0  0
 36 39  1  0  0  0  0
 37 38  1  0  0  0  0
 38 40  1  0  0  0  0
 39 79  1  0  0  0  0
 39 80  1  0  0  0  0
 39 81  1  0  0  0  0
 40 82  1  0  0  0  0
 40 83  1  0  0  0  0
 41 42  1  0  0  0  0
 41 84  1  0  0  0  0
 42 43  1  0  0  0  0
 42 85  1  0  0  0  0
 43 45  1  0  0  0  0
 43 86  1  0  0  0  0
 44 45  1  0  0  0  0
 44 46  1  1  0  0  0
 44 87  1  0  0  0  0
 45 88  1  0  0  0  0
 46 90  1  0  0  0  0
 46 91  1  0  0  0  0
M  END
> <PUBCHEM_COMPOUND_CID>
101482745

> <PUBCHEM_COMPOUND_CANONICALIZED>
1

> <PUBCHEM_CACTVS_COMPLEXITY>
1330

> <PUBCHEM_CACTVS_HBOND_ACCEPTOR>
12

> <PUBCHEM_CACTVS_HBOND_DONOR>
6

> <PUBCHEM_CACTVS_ROTATABLE_BOND>
6

> <PUBCHEM_CACTVS_SUBSKEYS>
AAADcfB8PAAAAAAAAAAAAAAAEgAAAYAAAAA0YIECBIAAAGDAAAAAGgAACAAAD1SwgAMCCAAABgCIAqDSCAAAAAAgAAAICAEAAEgRFBYAIQAiUAAF4AAPIYPK7PzPgAAAAAAAAADAAAYQADCAAQAACAAAAA==

> <PUBCHEM_IUPAC_OPENEYE_NAME>
(1S,2S,4S,5R,10R,11S,13S,14R,15R,18S)-5,13-dihydroxy-10,14-dimethyl-15-[(1S)-1-[(2R)-4-methyl-6-oxo-5-[[(2R,3R,4S,5S,6R)-3,4,5-trihydroxy-6-(hydroxymethyl)tetrahydropyran-2-yl]oxymethyl]-2,3-dihydropyran-2-yl]ethyl]-3-oxapentacyclo[9.7.0.02,4.05,10.014,18]octadec-7-en-9-one

> <PUBCHEM_IUPAC_CAS_NAME>
(1S,2S,4S,5R,10R,11S,13S,14R,15R,18S)-5,13-dihydroxy-10,14-dimethyl-15-[(1S)-1-[(2R)-4-methyl-6-oxo-5-[[(2R,3R,4S,5S,6R)-3,4,5-trihydroxy-6-(hydroxymethyl)-2-oxanyl]oxymethyl]-2,3-dihydropyran-2-yl]ethyl]-3-oxapentacyclo[9.7.0.02,4.05,10.014,18]octadec-7-en-9-one

> <PUBCHEM_IUPAC_NAME_MARKUP>
(1<I>S</I>,2<I>S</I>,4<I>S</I>,5<I>R</I>,10<I>R</I>,11<I>S</I>,13<I>S</I>,14<I>R</I>,15<I>R</I>,18<I>S</I>)-5,13-dihydroxy-10,14-dimethyl-15-[(1<I>S</I>)-1-[(2<I>R</I>)-4-methyl-6-oxo-5-[[(2<I>R</I>,3<I>R</I>,4<I>S</I>,5<I>S</I>,6<I>R</I>)-3,4,5-trihydroxy-6-(hydroxymethyl)oxan-2-yl]oxymethyl]-2,3-dihydropyran-2-yl]ethyl]-3-oxapentacyclo[9.7.0.0<SUP>2,4</SUP>.0<SUP>5,10</SUP>.0<SUP>14,18</SUP>]octadec-7-en-9-one

> <PUBCHEM_IUPAC_NAME>
(1S,2S,4S,5R,10R,11S,13S,14R,15R,18S)-5,13-dihydroxy-10,14-dimethyl-15-[(1S)-1-[(2R)-4-methyl-6-oxo-5-[[(2R,3R,4S,5S,6R)-3,4,5-trihydroxy-6-(hydroxymethyl)oxan-2-yl]oxymethyl]-2,3-dihydropyran-2-yl]ethyl]-3-oxapentacyclo[9.7.0.02,4.05,10.014,18]octadec-7-en-9-one

> <PUBCHEM_IUPAC_SYSTEMATIC_NAME>
(1S,2S,4S,5R,10R,11S,13S,14R,15R,18S)-15-[(1S)-1-[(2R)-5-[[(2R,3R,4S,5S,6R)-6-(hydroxymethyl)-3,4,5-tris(oxidanyl)oxan-2-yl]oxymethyl]-4-methyl-6-oxidanylidene-2,3-dihydropyran-2-yl]ethyl]-10,14-dimethyl-5,13-bis(oxidanyl)-3-oxapentacyclo[9.7.0.02,4.05,10.014,18]octadec-7-en-9-one

> <PUBCHEM_IUPAC_TRADITIONAL_NAME>
(1S,2S,4S,5R,10R,11S,13S,14R,15R,18S)-5,13-dihydroxy-15-[(1S)-1-[(2R)-6-keto-4-methyl-5-[[(2R,3R,4S,5S,6R)-3,4,5-trihydroxy-6-methylol-tetrahydropyran-2-yl]oxymethyl]-2,3-dihydropyran-2-yl]ethyl]-10,14-dimethyl-3-oxapentacyclo[9.7.0.02,4.05,10.014,18]octadec-7-en-9-one

> <PUBCHEM_IUPAC_INCHI>
InChI=1S/C34H48O12/c1-14-10-20(44-30(41)16(14)13-43-31-27(40)26(39)25(38)21(12-35)45-31)15(2)17-7-8-18-24-19(11-23(37)32(17,18)3)33(4)22(36)6-5-9-34(33,42)29-28(24)46-29/h5-6,15,17-21,23-29,31,35,37-40,42H,7-13H2,1-4H3/t15-,17+,18-,19-,20+,21+,23-,24-,25+,26-,27+,28-,29-,31+,32+,33-,34-/m0/s1

> <PUBCHEM_IUPAC_INCHIKEY>
AIYMAHAWOXSLTP-NGSILSQESA-N

> <PUBCHEM_XLOGP3_AA>
0.5

> <PUBCHEM_EXACT_MASS>
648.314577

> <PUBCHEM_MOLECULAR_FORMULA>
C34H48O12

> <PUBCHEM_MOLECULAR_WEIGHT>
648.7

> <PUBCHEM_OPENEYE_CAN_SMILES>
CC1=C(C(=O)OC(C1)C(C)C2CCC3C2(C(CC4C3C5C(O5)C6(C4(C(=O)C=CC6)C)O)O)C)COC7C(C(C(C(O7)CO)O)O)O

> <PUBCHEM_OPENEYE_ISO_SMILES>
CC1=C(C(=O)O[C@H](C1)[C@@H](C)[C@H]2CC[C@@H]3[C@@]2([C@H](C[C@H]4[C@H]3[C@H]5[C@H](O5)[C@@]6([C@@]4(C(=O)C=CC6)C)O)O)C)CO[C@H]7[C@@H]([C@H]([C@@H]([C@H](O7)CO)O)O)O

> <PUBCHEM_CACTVS_TPSA>
196

> <PUBCHEM_MONOISOTOPIC_WEIGHT>
648.314577

> <PUBCHEM_TOTAL_CHARGE>
0

> <PUBCHEM_HEAVY_ATOM_COUNT>
46

> <PUBCHEM_ATOM_DEF_STEREO_COUNT>
17

> <PUBCHEM_ATOM_UDEF_STEREO_COUNT>
0

> <PUBCHEM_BOND_DEF_STEREO_COUNT>
0

> <PUBCHEM_BOND_UDEF_STEREO_COUNT>
0

> <PUBCHEM_ISOTOPIC_ATOM_COUNT>
0

> <PUBCHEM_COMPONENT_COUNT>
1

> <PUBCHEM_CACTVS_TAUTO_COUNT>
-1

> <PUBCHEM_COORDINATE_TYPE>
1
5
255

> <PUBCHEM_BONDANNOTATIONS>
17  1  6
18  1  6
43  10  5
45  11  6
13  47  5
14  48  6
15  49  6
16  26  5
19  29  5
20  2  6
21  52  6
28  34  6
22  3  6
32  72  6
44  46  5
41  7  5
42  9  6

$$$$
