205954
  -OEChem-09082010442D

 61 63  0     1  0  0  0  0  0999 V2000
    9.8312    0.0595    0.0000 O   0  0  0  0  0  0  0  0  0  0  0  0
    8.5991   -2.8065    0.0000 O   0  0  0  0  0  0  0  0  0  0  0  0
   10.3312   -3.8065    0.0000 O   0  0  0  0  0  0  0  0  0  0  0  0
   12.0632   -2.8065    0.0000 O   0  0  0  0  0  0  0  0  0  0  0  0
   11.8312    0.0595    0.0000 O   0  0  0  0  0  0  0  0  0  0  0  0
   10.3312    0.9255    0.0000 O   0  0  0  0  0  0  0  0  0  0  0  0
    8.3312   -0.8065    0.0000 O   0  0  0  0  0  0  0  0  0  0  0  0
    7.7331   -1.3065    0.0000 O   0  0  0  0  0  0  0  0  0  0  0  0
    4.3312    2.6576    0.0000 O   0  0  0  0  0  0  0  0  0  0  0  0
    2.5369   -2.3065    0.0000 O   0  0  0  0  0  0  0  0  0  0  0  0
    5.3312    4.3896    0.0000 O   0  0  0  0  0  0  0  0  0  0  0  0
    2.5369   -4.3065    0.0000 O   0  0  0  0  0  0  0  0  0  0  0  0
   10.3312   -0.8065    0.0000 C   0  0  3  0  0  0  0  0  0  0  0  0
    9.4651   -1.3065    0.0000 C   0  0  0  0  0  0  0  0  0  0  0  0
    9.4651   -2.3065    0.0000 C   0  0  3  0  0  0  0  0  0  0  0  0
   11.1972   -1.3065    0.0000 C   0  0  0  0  0  0  0  0  0  0  0  0
   10.3312   -2.8065    0.0000 C   0  0  3  0  0  0  0  0  0  0  0  0
   11.1972   -2.3065    0.0000 C   0  0  3  0  0  0  0  0  0  0  0  0
   10.8312    0.0595    0.0000 C   0  0  0  0  0  0  0  0  0  0  0  0
    8.8312    0.0595    0.0000 C   0  0  0  0  0  0  0  0  0  0  0  0
    7.7331   -2.3065    0.0000 C   0  0  0  0  0  0  0  0  0  0  0  0
    8.3312    0.9255    0.0000 C   0  0  0  0  0  0  0  0  0  0  0  0
    6.8671   -2.8065    0.0000 C   0  0  0  0  0  0  0  0  0  0  0  0
    7.3312    0.9255    0.0000 C   0  0  0  0  0  0  0  0  0  0  0  0
    6.0010   -2.3065    0.0000 C   0  0  0  0  0  0  0  0  0  0  0  0
    6.8312    1.7915    0.0000 C   0  0  0  0  0  0  0  0  0  0  0  0
    5.1350   -2.8065    0.0000 C   0  0  0  0  0  0  0  0  0  0  0  0
    5.8312    1.7915    0.0000 C   0  0  0  0  0  0  0  0  0  0  0  0
    7.3312    2.6576    0.0000 C   0  0  0  0  0  0  0  0  0  0  0  0
    4.2690   -2.3065    0.0000 C   0  0  0  0  0  0  0  0  0  0  0  0
    5.1350   -3.8065    0.0000 C   0  0  0  0  0  0  0  0  0  0  0  0
    5.3312    2.6576    0.0000 C   0  0  0  0  0  0  0  0  0  0  0  0
    6.8312    3.5236    0.0000 C   0  0  0  0  0  0  0  0  0  0  0  0
    3.4030   -2.8065    0.0000 C   0  0  0  0  0  0  0  0  0  0  0  0
    4.2690   -4.3065    0.0000 C   0  0  0  0  0  0  0  0  0  0  0  0
    5.8312    3.5236    0.0000 C   0  0  0  0  0  0  0  0  0  0  0  0
    3.4030   -3.8065    0.0000 C   0  0  0  0  0  0  0  0  0  0  0  0
    9.2531   -0.7239    0.0000 H   0  0  0  0  0  0  0  0  0  0  0  0
    8.8546   -1.4142    0.0000 H   0  0  0  0  0  0  0  0  0  0  0  0
    9.4651   -2.9265    0.0000 H   0  0  0  0  0  0  0  0  0  0  0  0
   11.8078   -1.4142    0.0000 H   0  0  0  0  0  0  0  0  0  0  0  0
   11.4092   -0.7239    0.0000 H   0  0  0  0  0  0  0  0  0  0  0  0
   10.8681   -3.1165    0.0000 H   0  0  0  0  0  0  0  0  0  0  0  0
   11.7341   -1.9965    0.0000 H   0  0  0  0  0  0  0  0  0  0  0  0
   10.8681   -4.1165    0.0000 H   0  0  0  0  0  0  0  0  0  0  0  0
   12.6002   -2.4965    0.0000 H   0  0  0  0  0  0  0  0  0  0  0  0
   12.1412    0.5964    0.0000 H   0  0  0  0  0  0  0  0  0  0  0  0
    8.6412    1.4624    0.0000 H   0  0  0  0  0  0  0  0  0  0  0  0
    6.8671   -3.4265    0.0000 H   0  0  0  0  0  0  0  0  0  0  0  0
    7.0212    0.3886    0.0000 H   0  0  0  0  0  0  0  0  0  0  0  0
    6.0010   -1.6865    0.0000 H   0  0  0  0  0  0  0  0  0  0  0  0
    5.5212    1.2546    0.0000 H   0  0  0  0  0  0  0  0  0  0  0  0
    7.9512    2.6576    0.0000 H   0  0  0  0  0  0  0  0  0  0  0  0
    4.2690   -1.6865    0.0000 H   0  0  0  0  0  0  0  0  0  0  0  0
    5.6720   -4.1165    0.0000 H   0  0  0  0  0  0  0  0  0  0  0  0
    7.1412    4.0605    0.0000 H   0  0  0  0  0  0  0  0  0  0  0  0
    4.2690   -4.9265    0.0000 H   0  0  0  0  0  0  0  0  0  0  0  0
    4.0212    3.1945    0.0000 H   0  0  0  0  0  0  0  0  0  0  0  0
    2.0000   -2.6165    0.0000 H   0  0  0  0  0  0  0  0  0  0  0  0
    5.6412    4.9265    0.0000 H   0  0  0  0  0  0  0  0  0  0  0  0
    2.5369   -4.9265    0.0000 H   0  0  0  0  0  0  0  0  0  0  0  0
  1 13  1  0  0  0  0
  1 20  1  0  0  0  0
  2 15  1  0  0  0  0
  2 21  1  0  0  0  0
  3 17  1  0  0  0  0
  3 45  1  0  0  0  0
  4 18  1  0  0  0  0
  4 46  1  0  0  0  0
  5 19  1  0  0  0  0
  5 47  1  0  0  0  0
  6 19  2  0  0  0  0
  7 20  2  0  0  0  0
  8 21  2  0  0  0  0
  9 32  1  0  0  0  0
  9 58  1  0  0  0  0
 10 34  1  0  0  0  0
 10 59  1  0  0  0  0
 11 36  1  0  0  0  0
 11 60  1  0  0  0  0
 12 37  1  0  0  0  0
 12 61  1  0  0  0  0
 13 14  1  0  0  0  0
 13 16  1  0  0  0  0
 13 19  1  0  0  0  0
 14 15  1  0  0  0  0
 14 38  1  0  0  0  0
 14 39  1  0  0  0  0
 15 17  1  0  0  0  0
 15 40  1  0  0  0  0
 16 18  1  0  0  0  0
 16 41  1  0  0  0  0
 16 42  1  0  0  0  0
 17 18  1  0  0  0  0
 17 43  1  0  0  0  0
 18 44  1  0  0  0  0
 20 22  1  0  0  0  0
 21 23  1  0  0  0  0
 22 24  2  3  0  0  0
 22 48  1  0  0  0  0
 23 25  2  3  0  0  0
 23 49  1  0  0  0  0
 24 26  1  0  0  0  0
 24 50  1  0  0  0  0
 25 27  1  0  0  0  0
 25 51  1  0  0  0  0
 26 28  2  0  0  0  0
 26 29  1  0  0  0  0
 27 30  2  0  0  0  0
 27 31  1  0  0  0  0
 28 32  1  0  0  0  0
 28 52  1  0  0  0  0
 29 33  2  0  0  0  0
 29 53  1  0  0  0  0
 30 34  1  0  0  0  0
 30 54  1  0  0  0  0
 31 35  2  0  0  0  0
 31 55  1  0  0  0  0
 32 36  2  0  0  0  0
 33 36  1  0  0  0  0
 33 56  1  0  0  0  0
 34 37  2  0  0  0  0
 35 37  1  0  0  0  0
 35 57  1  0  0  0  0
M  END
> <PUBCHEM_COMPOUND_CID>
205954

> <PUBCHEM_COMPOUND_CANONICALIZED>
1

> <PUBCHEM_CACTVS_COMPLEXITY>
887

> <PUBCHEM_CACTVS_HBOND_ACCEPTOR>
12

> <PUBCHEM_CACTVS_HBOND_DONOR>
7

> <PUBCHEM_CACTVS_ROTATABLE_BOND>
9

> <PUBCHEM_CACTVS_SUBSKEYS>
AAADceB4PAAAAAAAAAAAAAAAAAAAAAAAAAAwYMAAAAAAAAABQAAAGgAACAAADFSgmAIwDoAABgCIAiDSCAICAAAgIAAIiAFGiMgJNjKCMRaCcAElwBELuYfK7DzOIAABAAAAQABCAAIQAACAAAAAAAAAAA==

> <PUBCHEM_IUPAC_OPENEYE_NAME>
1,3-bis[3-(3,4-dihydroxyphenyl)prop-2-enoyloxy]-4,5-dihydroxy-cyclohexanecarboxylic acid

> <PUBCHEM_IUPAC_CAS_NAME>
1,3-bis[3-(3,4-dihydroxyphenyl)-1-oxoprop-2-enoxy]-4,5-dihydroxy-1-cyclohexanecarboxylic acid

> <PUBCHEM_IUPAC_NAME_MARKUP>
1,3-bis[3-(3,4-dihydroxyphenyl)prop-2-enoyloxy]-4,5-dihydroxycyclohexane-1-carboxylic acid

> <PUBCHEM_IUPAC_NAME>
1,3-bis[3-(3,4-dihydroxyphenyl)prop-2-enoyloxy]-4,5-dihydroxycyclohexane-1-carboxylic acid

> <PUBCHEM_IUPAC_SYSTEMATIC_NAME>
1,3-bis[3-[3,4-bis(oxidanyl)phenyl]prop-2-enoyloxy]-4,5-bis(oxidanyl)cyclohexane-1-carboxylic acid

> <PUBCHEM_IUPAC_TRADITIONAL_NAME>
1,3-dicaffeoyloxy-4,5-dihydroxy-cyclohexanecarboxylic acid

> <PUBCHEM_IUPAC_INCHI>
InChI=1S/C25H24O12/c26-15-5-1-13(9-17(15)28)3-7-21(31)36-20-12-25(24(34)35,11-19(30)23(20)33)37-22(32)8-4-14-2-6-16(27)18(29)10-14/h1-10,19-20,23,26-30,33H,11-12H2,(H,34,35)

> <PUBCHEM_IUPAC_INCHIKEY>
YDDUMTOHNYZQPO-UHFFFAOYSA-N

> <PUBCHEM_XLOGP3_AA>
1.5

> <PUBCHEM_EXACT_MASS>
516.126776

> <PUBCHEM_MOLECULAR_FORMULA>
C25H24O12

> <PUBCHEM_MOLECULAR_WEIGHT>
516.4

> <PUBCHEM_OPENEYE_CAN_SMILES>
C1C(C(C(CC1(C(=O)O)OC(=O)C=CC2=CC(=C(C=C2)O)O)OC(=O)C=CC3=CC(=C(C=C3)O)O)O)O

> <PUBCHEM_OPENEYE_ISO_SMILES>
C1C(C(C(CC1(C(=O)O)OC(=O)C=CC2=CC(=C(C=C2)O)O)OC(=O)C=CC3=CC(=C(C=C3)O)O)O)O

> <PUBCHEM_CACTVS_TPSA>
211

> <PUBCHEM_MONOISOTOPIC_WEIGHT>
516.126776

> <PUBCHEM_TOTAL_CHARGE>
0

> <PUBCHEM_HEAVY_ATOM_COUNT>
37

> <PUBCHEM_ATOM_DEF_STEREO_COUNT>
0

> <PUBCHEM_ATOM_UDEF_STEREO_COUNT>
4

> <PUBCHEM_BOND_DEF_STEREO_COUNT>
0

> <PUBCHEM_BOND_UDEF_STEREO_COUNT>
2

> <PUBCHEM_ISOTOPIC_ATOM_COUNT>
0

> <PUBCHEM_COMPONENT_COUNT>
1

> <PUBCHEM_CACTVS_TAUTO_COUNT>
-1

> <PUBCHEM_COORDINATE_TYPE>
1
5
255

> <PUBCHEM_BONDANNOTATIONS>
13  19  3
15  2  3
22  24  1
23  25  1
26  28  8
26  29  8
27  30  8
27  31  8
28  32  8
29  33  8
17  3  3
30  34  8
31  35  8
32  36  8
33  36  8
34  37  8
35  37  8
18  4  3

$$$$
