46173974
  -OEChem-09082009412D

100105  0     1  0  0  0  0  0999 V2000
    2.3046    4.2682    0.0000 O   0  0  0  0  0  0  0  0  0  0  0  0
    5.6498   -6.0276    0.0000 O   0  0  0  0  0  0  0  0  0  0  0  0
    2.3978    2.4886    0.0000 O   0  0  0  0  0  0  0  0  0  0  0  0
    4.6793   -4.5331    0.0000 O   0  0  0  0  0  0  0  0  0  0  0  0
    3.6942   -0.9717    0.0000 O   0  0  0  0  0  0  0  0  0  0  0  0
    2.2079    0.3666    0.0000 O   0  0  0  0  0  0  0  0  0  0  0  0
    3.2784   -2.9280    0.0000 O   0  0  0  0  0  0  0  0  0  0  0  0
    3.0212    8.1046    0.0000 O   0  0  0  0  0  0  0  0  0  0  0  0
    6.4853    8.1046    0.0000 O   0  0  0  0  0  0  0  0  0  0  0  0
   11.2871   -6.6739    0.0000 O   0  0  0  0  0  0  0  0  0  0  0  0
   10.4737   -8.5010    0.0000 O   0  0  0  0  0  0  0  0  0  0  0  0
    4.7533    9.1046    0.0000 O   0  0  0  0  0  0  0  0  0  0  0  0
    3.8872    4.6046    0.0000 C   0  0  3  0  0  0  0  0  0  0  0  0
    7.1280   -5.3695    0.0000 C   0  0  3  0  0  0  0  0  0  0  0  0
    3.7827    3.6100    0.0000 C   0  0  3  0  0  0  0  0  0  0  0  0
    6.4589   -4.6263    0.0000 C   0  0  3  0  0  0  0  0  0  0  0  0
    2.9737    5.0113    0.0000 C   0  0  0  0  0  0  0  0  0  0  0  0
    4.7533    5.1046    0.0000 C   0  0  0  0  0  0  0  0  0  0  0  0
    6.6280   -6.2355    0.0000 C   0  0  0  0  0  0  0  0  0  0  0  0
    8.1225   -5.2650    0.0000 C   0  0  0  0  0  0  0  0  0  0  0  0
    4.5258    2.9409    0.0000 C   0  0  0  0  0  0  0  0  0  0  0  0
    6.6668   -3.6482    0.0000 C   0  0  0  0  0  0  0  0  0  0  0  0
    2.8046    3.4021    0.0000 C   0  0  0  0  0  0  0  0  0  0  0  0
    5.5453   -5.0331    0.0000 C   0  0  0  0  0  0  0  0  0  0  0  0
    4.7533    6.1046    0.0000 C   0  0  0  0  0  0  0  0  0  0  0  0
    4.3179    1.9628    0.0000 C   0  0  0  0  0  0  0  0  0  0  0  0
    8.7103   -6.0740    0.0000 C   0  0  0  0  0  0  0  0  0  0  0  0
    5.9236   -2.9791    0.0000 C   0  0  0  0  0  0  0  0  0  0  0  0
    3.3669    1.6538    0.0000 C   0  0  0  0  0  0  0  0  0  0  0  0
    5.6193    6.6046    0.0000 C   0  0  0  0  0  0  0  0  0  0  0  0
    3.8872    6.6046    0.0000 C   0  0  0  0  0  0  0  0  0  0  0  0
    5.0611    1.2936    0.0000 C   0  0  0  0  0  0  0  0  0  0  0  0
    4.9726   -3.2881    0.0000 C   0  0  0  0  0  0  0  0  0  0  0  0
    6.1316   -2.0009    0.0000 C   0  0  0  0  0  0  0  0  0  0  0  0
    9.7048   -5.9694    0.0000 C   0  0  0  0  0  0  0  0  0  0  0  0
    8.3036   -6.9875    0.0000 C   0  0  0  0  0  0  0  0  0  0  0  0
    3.1590    0.6756    0.0000 C   0  0  0  0  0  0  0  0  0  0  0  0
    4.2294   -2.6190    0.0000 C   0  0  0  0  0  0  0  0  0  0  0  0
    3.9021    0.0065    0.0000 C   0  0  0  0  0  0  0  0  0  0  0  0
    4.8532    0.3155    0.0000 C   0  0  0  0  0  0  0  0  0  0  0  0
    4.4374   -1.6408    0.0000 C   0  0  0  0  0  0  0  0  0  0  0  0
    5.3884   -1.3318    0.0000 C   0  0  0  0  0  0  0  0  0  0  0  0
    3.8872    7.6046    0.0000 C   0  0  0  0  0  0  0  0  0  0  0  0
    5.6193    7.6046    0.0000 C   0  0  0  0  0  0  0  0  0  0  0  0
   10.2926   -6.7785    0.0000 C   0  0  0  0  0  0  0  0  0  0  0  0
    8.8914   -7.7965    0.0000 C   0  0  0  0  0  0  0  0  0  0  0  0
    4.7533    8.1046    0.0000 C   0  0  0  0  0  0  0  0  0  0  0  0
    9.8859   -7.6920    0.0000 C   0  0  0  0  0  0  0  0  0  0  0  0
    2.0000   -0.6116    0.0000 C   0  0  0  0  0  0  0  0  0  0  0  0
    3.0705   -3.9061    0.0000 C   0  0  0  0  0  0  0  0  0  0  0  0
    2.1552    7.6046    0.0000 C   0  0  0  0  0  0  0  0  0  0  0  0
    7.3513    7.6046    0.0000 C   0  0  0  0  0  0  0  0  0  0  0  0
   11.6939   -5.7604    0.0000 C   0  0  0  0  0  0  0  0  0  0  0  0
   10.0669   -9.4146    0.0000 C   0  0  0  0  0  0  0  0  0  0  0  0
    4.4072    4.2669    0.0000 H   0  0  0  0  0  0  0  0  0  0  0  0
    7.3502   -4.7907    0.0000 H   0  0  0  0  0  0  0  0  0  0  0  0
    3.6222    3.0112    0.0000 H   0  0  0  0  0  0  0  0  0  0  0  0
    7.0577   -4.4659    0.0000 H   0  0  0  0  0  0  0  0  0  0  0  0
    3.2837    5.5482    0.0000 H   0  0  0  0  0  0  0  0  0  0  0  0
    2.4721    5.3757    0.0000 H   0  0  0  0  0  0  0  0  0  0  0  0
    4.9653    4.5220    0.0000 H   0  0  0  0  0  0  0  0  0  0  0  0
    5.3638    5.2122    0.0000 H   0  0  0  0  0  0  0  0  0  0  0  0
    6.4364   -6.8252    0.0000 H   0  0  0  0  0  0  0  0  0  0  0  0
    7.1944   -6.4877    0.0000 H   0  0  0  0  0  0  0  0  0  0  0  0
    8.6798   -4.9932    0.0000 H   0  0  0  0  0  0  0  0  0  0  0  0
    7.9516   -4.6690    0.0000 H   0  0  0  0  0  0  0  0  0  0  0  0
    5.1007    2.7087    0.0000 H   0  0  0  0  0  0  0  0  0  0  0  0
    4.8544    3.4667    0.0000 H   0  0  0  0  0  0  0  0  0  0  0  0
    7.2416   -3.8804    0.0000 H   0  0  0  0  0  0  0  0  0  0  0  0
    6.9953   -3.1224    0.0000 H   0  0  0  0  0  0  0  0  0  0  0  0
    2.9061    2.0686    0.0000 H   0  0  0  0  0  0  0  0  0  0  0  0
    6.1562    6.2946    0.0000 H   0  0  0  0  0  0  0  0  0  0  0  0
    3.3503    6.2946    0.0000 H   0  0  0  0  0  0  0  0  0  0  0  0
    5.6507    1.4852    0.0000 H   0  0  0  0  0  0  0  0  0  0  0  0
    4.8437   -3.8945    0.0000 H   0  0  0  0  0  0  0  0  0  0  0  0
    6.7212   -1.8093    0.0000 H   0  0  0  0  0  0  0  0  0  0  0  0
    9.9570   -5.4030    0.0000 H   0  0  0  0  0  0  0  0  0  0  0  0
    7.6870   -7.0523    0.0000 H   0  0  0  0  0  0  0  0  0  0  0  0
    5.3139   -0.0994    0.0000 H   0  0  0  0  0  0  0  0  0  0  0  0
    5.5173   -0.7253    0.0000 H   0  0  0  0  0  0  0  0  0  0  0  0
    8.6392   -8.3629    0.0000 H   0  0  0  0  0  0  0  0  0  0  0  0
    5.2902    9.4146    0.0000 H   0  0  0  0  0  0  0  0  0  0  0  0
    1.3936   -0.4827    0.0000 H   0  0  0  0  0  0  0  0  0  0  0  0
    1.8711   -1.2180    0.0000 H   0  0  0  0  0  0  0  0  0  0  0  0
    2.6064   -0.7405    0.0000 H   0  0  0  0  0  0  0  0  0  0  0  0
    2.4640   -3.7772    0.0000 H   0  0  0  0  0  0  0  0  0  0  0  0
    2.9416   -4.5126    0.0000 H   0  0  0  0  0  0  0  0  0  0  0  0
    3.6769   -4.0350    0.0000 H   0  0  0  0  0  0  0  0  0  0  0  0
    1.8452    8.1415    0.0000 H   0  0  0  0  0  0  0  0  0  0  0  0
    1.6182    7.2946    0.0000 H   0  0  0  0  0  0  0  0  0  0  0  0
    2.4652    7.0676    0.0000 H   0  0  0  0  0  0  0  0  0  0  0  0
    7.0413    7.0676    0.0000 H   0  0  0  0  0  0  0  0  0  0  0  0
    7.8883    7.2946    0.0000 H   0  0  0  0  0  0  0  0  0  0  0  0
    7.6613    8.1415    0.0000 H   0  0  0  0  0  0  0  0  0  0  0  0
   12.2603   -6.0126    0.0000 H   0  0  0  0  0  0  0  0  0  0  0  0
   11.9460   -5.1940    0.0000 H   0  0  0  0  0  0  0  0  0  0  0  0
   11.1275   -5.5082    0.0000 H   0  0  0  0  0  0  0  0  0  0  0  0
    9.5005   -9.1624    0.0000 H   0  0  0  0  0  0  0  0  0  0  0  0
    9.8148   -9.9810    0.0000 H   0  0  0  0  0  0  0  0  0  0  0  0
   10.6333   -9.6668    0.0000 H   0  0  0  0  0  0  0  0  0  0  0  0
  1 17  1  0  0  0  0
  1 23  1  0  0  0  0
  2 19  1  0  0  0  0
  2 24  1  0  0  0  0
  3 23  2  0  0  0  0
  4 24  2  0  0  0  0
  5 39  1  0  0  0  0
  5 41  1  0  0  0  0
  6 37  1  0  0  0  0
  6 49  1  0  0  0  0
  7 38  1  0  0  0  0
  7 50  1  0  0  0  0
  8 43  1  0  0  0  0
  8 51  1  0  0  0  0
  9 44  1  0  0  0  0
  9 52  1  0  0  0  0
 10 45  1  0  0  0  0
 10 53  1  0  0  0  0
 11 48  1  0  0  0  0
 11 54  1  0  0  0  0
 12 47  1  0  0  0  0
 12 82  1  0  0  0  0
 13 15  1  0  0  0  0
 13 17  1  0  0  0  0
 13 18  1  0  0  0  0
 13 55  1  0  0  0  0
 14 16  1  0  0  0  0
 14 19  1  0  0  0  0
 14 20  1  0  0  0  0
 14 56  1  0  0  0  0
 15 21  1  0  0  0  0
 15 23  1  0  0  0  0
 15 57  1  0  0  0  0
 16 22  1  0  0  0  0
 16 24  1  0  0  0  0
 16 58  1  0  0  0  0
 17 59  1  0  0  0  0
 17 60  1  0  0  0  0
 18 25  1  0  0  0  0
 18 61  1  0  0  0  0
 18 62  1  0  0  0  0
 19 63  1  0  0  0  0
 19 64  1  0  0  0  0
 20 27  1  0  0  0  0
 20 65  1  0  0  0  0
 20 66  1  0  0  0  0
 21 26  1  0  0  0  0
 21 67  1  0  0  0  0
 21 68  1  0  0  0  0
 22 28  1  0  0  0  0
 22 69  1  0  0  0  0
 22 70  1  0  0  0  0
 25 30  2  0  0  0  0
 25 31  1  0  0  0  0
 26 29  2  0  0  0  0
 26 32  1  0  0  0  0
 27 35  2  0  0  0  0
 27 36  1  0  0  0  0
 28 33  2  0  0  0  0
 28 34  1  0  0  0  0
 29 37  1  0  0  0  0
 29 71  1  0  0  0  0
 30 44  1  0  0  0  0
 30 72  1  0  0  0  0
 31 43  2  0  0  0  0
 31 73  1  0  0  0  0
 32 40  2  0  0  0  0
 32 74  1  0  0  0  0
 33 38  1  0  0  0  0
 33 75  1  0  0  0  0
 34 42  2  0  0  0  0
 34 76  1  0  0  0  0
 35 45  1  0  0  0  0
 35 77  1  0  0  0  0
 36 46  2  0  0  0  0
 36 78  1  0  0  0  0
 37 39  2  0  0  0  0
 38 41  2  0  0  0  0
 39 40  1  0  0  0  0
 40 79  1  0  0  0  0
 41 42  1  0  0  0  0
 42 80  1  0  0  0  0
 43 47  1  0  0  0  0
 44 47  2  0  0  0  0
 45 48  2  0  0  0  0
 46 48  1  0  0  0  0
 46 81  1  0  0  0  0
 49 83  1  0  0  0  0
 49 84  1  0  0  0  0
 49 85  1  0  0  0  0
 50 86  1  0  0  0  0
 50 87  1  0  0  0  0
 50 88  1  0  0  0  0
 51 89  1  0  0  0  0
 51 90  1  0  0  0  0
 51 91  1  0  0  0  0
 52 92  1  0  0  0  0
 52 93  1  0  0  0  0
 52 94  1  0  0  0  0
 53 95  1  0  0  0  0
 53 96  1  0  0  0  0
 53 97  1  0  0  0  0
 54 98  1  0  0  0  0
 54 99  1  0  0  0  0
 54100  1  0  0  0  0
M  END
> <PUBCHEM_COMPOUND_CID>
46173974

> <PUBCHEM_COMPOUND_CANONICALIZED>
1

> <PUBCHEM_CACTVS_COMPLEXITY>
1170

> <PUBCHEM_CACTVS_HBOND_ACCEPTOR>
12

> <PUBCHEM_CACTVS_HBOND_DONOR>
1

> <PUBCHEM_CACTVS_ROTATABLE_BOND>
16

> <PUBCHEM_CACTVS_SUBSKEYS>
AAADcfB8PAAAAAAAAAAAAAAAAAAAASJAAAAwYMGAAAAAAAABVAAAGgAACAAADQSgmAIyDoAABgCIAiDSCAACCAAgIAAIiAEGiIgNJzKGMRqCeCOlwBULuAeK6PyOoAABCAAAQABAAAIQAACAAAAAAAAAAA==

> <PUBCHEM_IUPAC_OPENEYE_NAME>
4-[(3,4-dimethoxyphenyl)methyl]-3-[[4-[4-[[4-[(4-hydroxy-3,5-dimethoxy-phenyl)methyl]-2-oxo-tetrahydrofuran-3-yl]methyl]-2-methoxy-phenoxy]-3-methoxy-phenyl]methyl]tetrahydrofuran-2-one

> <PUBCHEM_IUPAC_CAS_NAME>
4-[(3,4-dimethoxyphenyl)methyl]-3-[[4-[4-[[4-[(4-hydroxy-3,5-dimethoxyphenyl)methyl]-2-oxo-3-oxolanyl]methyl]-2-methoxyphenoxy]-3-methoxyphenyl]methyl]-2-oxolanone

> <PUBCHEM_IUPAC_NAME_MARKUP>
4-[(3,4-dimethoxyphenyl)methyl]-3-[[4-[4-[[4-[(4-hydroxy-3,5-dimethoxyphenyl)methyl]-2-oxooxolan-3-yl]methyl]-2-methoxyphenoxy]-3-methoxyphenyl]methyl]oxolan-2-one

> <PUBCHEM_IUPAC_NAME>
4-[(3,4-dimethoxyphenyl)methyl]-3-[[4-[4-[[4-[(4-hydroxy-3,5-dimethoxyphenyl)methyl]-2-oxooxolan-3-yl]methyl]-2-methoxyphenoxy]-3-methoxyphenyl]methyl]oxolan-2-one

> <PUBCHEM_IUPAC_SYSTEMATIC_NAME>
3-[[4-[4-[[4-[(3,5-dimethoxy-4-oxidanyl-phenyl)methyl]-2-oxidanylidene-oxolan-3-yl]methyl]-2-methoxy-phenoxy]-3-methoxy-phenyl]methyl]-4-[(3,4-dimethoxyphenyl)methyl]oxolan-2-one

> <PUBCHEM_IUPAC_TRADITIONAL_NAME>
3-[4-[4-[[4-(4-hydroxy-3,5-dimethoxy-benzyl)-2-keto-tetrahydrofuran-3-yl]methyl]-2-methoxy-phenoxy]-3-methoxy-benzyl]-4-veratryl-tetrahydrofuran-2-one

> <PUBCHEM_IUPAC_INCHI>
InChI=1S/C42H46O12/c1-46-32-10-7-24(17-35(32)47-2)13-28-22-52-41(44)30(28)15-25-8-11-33(36(18-25)48-3)54-34-12-9-26(19-37(34)49-4)16-31-29(23-53-42(31)45)14-27-20-38(50-5)40(43)39(21-27)51-6/h7-12,17-21,28-31,43H,13-16,22-23H2,1-6H3

> <PUBCHEM_IUPAC_INCHIKEY>
UZWZHUIBKPSRGH-UHFFFAOYSA-N

> <PUBCHEM_XLOGP3_AA>
7.1

> <PUBCHEM_EXACT_MASS>
742.298927

> <PUBCHEM_MOLECULAR_FORMULA>
C42H46O12

> <PUBCHEM_MOLECULAR_WEIGHT>
742.8

> <PUBCHEM_OPENEYE_CAN_SMILES>
COC1=C(C=C(C=C1)CC2COC(=O)C2CC3=CC(=C(C=C3)OC4=C(C=C(C=C4)CC5C(COC5=O)CC6=CC(=C(C(=C6)OC)O)OC)OC)OC)OC

> <PUBCHEM_OPENEYE_ISO_SMILES>
COC1=C(C=C(C=C1)CC2COC(=O)C2CC3=CC(=C(C=C3)OC4=C(C=C(C=C4)CC5C(COC5=O)CC6=CC(=C(C(=C6)OC)O)OC)OC)OC)OC

> <PUBCHEM_CACTVS_TPSA>
137

> <PUBCHEM_MONOISOTOPIC_WEIGHT>
742.298927

> <PUBCHEM_TOTAL_CHARGE>
0

> <PUBCHEM_HEAVY_ATOM_COUNT>
54

> <PUBCHEM_ATOM_DEF_STEREO_COUNT>
0

> <PUBCHEM_ATOM_UDEF_STEREO_COUNT>
4

> <PUBCHEM_BOND_DEF_STEREO_COUNT>
0

> <PUBCHEM_BOND_UDEF_STEREO_COUNT>
0

> <PUBCHEM_ISOTOPIC_ATOM_COUNT>
0

> <PUBCHEM_COMPONENT_COUNT>
1

> <PUBCHEM_CACTVS_TAUTO_COUNT>
-1

> <PUBCHEM_COORDINATE_TYPE>
1
5
255

> <PUBCHEM_BONDANNOTATIONS>
13  18  3
14  20  3
15  21  3
16  22  3
25  30  8
25  31  8
26  29  8
26  32  8
27  35  8
27  36  8
28  33  8
28  34  8
29  37  8
30  44  8
31  43  8
32  40  8
33  38  8
34  42  8
35  45  8
36  46  8
37  39  8
38  41  8
39  40  8
41  42  8
43  47  8
44  47  8
45  48  8
46  48  8

$$$$
