70697783
  -OEChem-08232009022D

178182  0     1  0  0  0  0  0999 V2000
   14.9904    5.1251    0.0000 O   0  0  0  0  0  0  0  0  0  0  0  0
   13.2583    5.1251    0.0000 O   0  0  0  0  0  0  0  0  0  0  0  0
   14.9904    3.1251    0.0000 O   0  0  0  0  0  0  0  0  0  0  0  0
   13.2583    2.1251    0.0000 O   0  0  0  0  0  0  0  0  0  0  0  0
   11.5263    3.1251    0.0000 O   0  0  0  0  0  0  0  0  0  0  0  0
   10.6603    4.6251    0.0000 O   0  0  0  0  0  0  0  0  0  0  0  0
   11.5263    2.1251    0.0000 O   0  0  0  0  0  0  0  0  0  0  0  0
   15.0196   11.3220    0.0000 C   0  0  1  0  0  0  0  0  0  0  0  0
   15.8876   10.8253    0.0000 C   0  0  2  0  0  0  0  0  0  0  0  0
   15.8914    9.8253    0.0000 C   0  0  1  0  0  0  0  0  0  0  0  0
   15.0274    9.3220    0.0000 C   0  0  1  0  0  0  0  0  0  0  0  0
   15.2251   12.2946    0.0000 C   0  0  2  0  0  0  0  0  0  0  0  0
   14.1555   10.8186    0.0000 C   0  0  0  0  0  0  0  0  0  0  0  0
   15.0153    8.2804    0.0000 C   0  0  2  0  0  0  0  0  0  0  0  0
   16.6220   11.4952    0.0000 C   0  0  0  0  0  0  0  0  0  0  0  0
   14.1594    9.8186    0.0000 C   0  0  0  0  0  0  0  0  0  0  0  0
   16.2134   12.4015    0.0000 C   0  0  0  0  0  0  0  0  0  0  0  0
   16.8034    9.3220    0.0000 C   0  0  0  0  0  0  0  0  0  0  0  0
   14.5544   13.0363    0.0000 C   0  0  1  0  0  0  0  0  0  0  0  0
   14.1517   11.8186    0.0000 C   0  0  0  0  0  0  0  0  0  0  0  0
   15.9154    7.7561    0.0000 C   0  0  0  0  0  0  0  0  0  0  0  0
   14.0654    7.7561    0.0000 C   0  0  0  0  0  0  0  0  0  0  0  0
   16.8154    8.2804    0.0000 C   0  0  0  0  0  0  0  0  0  0  0  0
   14.1512    8.7838    0.0000 C   0  0  0  0  0  0  0  0  0  0  0  0
   15.9279    6.6712    0.0000 C   0  0  0  0  0  0  0  0  0  0  0  0
   14.0528    6.6712    0.0000 C   0  0  0  0  0  0  0  0  0  0  0  0
   14.8614   13.9880    0.0000 C   0  0  0  0  0  0  0  0  0  0  0  0
   14.9904    6.1251    0.0000 C   0  0  2  0  0  0  0  0  0  0  0  0
   13.5767   12.8263    0.0000 C   0  0  0  0  0  0  0  0  0  0  0  0
   14.1907   14.7297    0.0000 C   0  0  0  0  0  0  0  0  0  0  0  0
   14.4977   15.6815    0.0000 C   0  0  2  0  0  0  0  0  0  0  0  0
   14.1244    4.6251    0.0000 C   0  0  2  0  0  0  0  0  0  0  0  0
   13.8270   16.4232    0.0000 C   0  0  0  0  0  0  0  0  0  0  0  0
   15.4754   15.8914    0.0000 C   0  0  0  0  0  0  0  0  0  0  0  0
   14.1244    3.6251    0.0000 C   0  0  1  0  0  0  0  0  0  0  0  0
   14.1340   17.3749    0.0000 C   0  0  0  0  0  0  0  0  0  0  0  0
   12.8493   16.2132    0.0000 C   0  0  0  0  0  0  0  0  0  0  0  0
   13.2583    3.1251    0.0000 C   0  0  2  0  0  0  0  0  0  0  0  0
   15.7824   16.8432    0.0000 C   0  0  0  0  0  0  0  0  0  0  0  0
   12.3923    4.6251    0.0000 C   0  0  1  0  0  0  0  0  0  0  0  0
   12.3923    3.6251    0.0000 C   0  0  1  0  0  0  0  0  0  0  0  0
   11.5263    5.1251    0.0000 C   0  0  0  0  0  0  0  0  0  0  0  0
   12.3923    1.6251    0.0000 C   0  0  0  0  0  0  0  0  0  0  0  0
   12.3923    0.6251    0.0000 C   0  0  0  0  0  0  0  0  0  0  0  0
   11.5263    0.1251    0.0000 C   0  0  0  0  0  0  0  0  0  0  0  0
   11.5263   -0.8749    0.0000 C   0  0  0  0  0  0  0  0  0  0  0  0
   10.6603   -1.3749    0.0000 C   0  0  0  0  0  0  0  0  0  0  0  0
   10.6603   -2.3749    0.0000 C   0  0  0  0  0  0  0  0  0  0  0  0
    9.7942   -2.8749    0.0000 C   0  0  0  0  0  0  0  0  0  0  0  0
    9.7942   -3.8749    0.0000 C   0  0  0  0  0  0  0  0  0  0  0  0
    8.9282   -4.3749    0.0000 C   0  0  0  0  0  0  0  0  0  0  0  0
    8.9282   -5.3749    0.0000 C   0  0  0  0  0  0  0  0  0  0  0  0
    8.0622   -5.8749    0.0000 C   0  0  0  0  0  0  0  0  0  0  0  0
    8.0622   -6.8749    0.0000 C   0  0  0  0  0  0  0  0  0  0  0  0
    7.1962   -7.3749    0.0000 C   0  0  0  0  0  0  0  0  0  0  0  0
    7.1962   -8.3749    0.0000 C   0  0  0  0  0  0  0  0  0  0  0  0
    6.3301   -8.8749    0.0000 C   0  0  0  0  0  0  0  0  0  0  0  0
    6.3301   -9.8749    0.0000 C   0  0  0  0  0  0  0  0  0  0  0  0
    5.4641  -10.3749    0.0000 C   0  0  0  0  0  0  0  0  0  0  0  0
    5.4641  -11.3749    0.0000 C   0  0  0  0  0  0  0  0  0  0  0  0
    4.5981  -11.8749    0.0000 C   0  0  0  0  0  0  0  0  0  0  0  0
    4.5981  -12.8749    0.0000 C   0  0  0  0  0  0  0  0  0  0  0  0
    3.7320  -13.3749    0.0000 C   0  0  0  0  0  0  0  0  0  0  0  0
    3.7320  -14.3749    0.0000 C   0  0  0  0  0  0  0  0  0  0  0  0
    2.8660  -14.8749    0.0000 C   0  0  0  0  0  0  0  0  0  0  0  0
    2.8660  -15.8749    0.0000 C   0  0  0  0  0  0  0  0  0  0  0  0
    2.0000  -16.3749    0.0000 C   0  0  0  0  0  0  0  0  0  0  0  0
    2.0000  -17.3749    0.0000 C   0  0  0  0  0  0  0  0  0  0  0  0
   16.6659   10.4836    0.0000 H   0  0  0  0  0  0  0  0  0  0  0  0
   16.6226   10.2588    0.0000 H   0  0  0  0  0  0  0  0  0  0  0  0
   15.7618    8.8942    0.0000 H   0  0  0  0  0  0  0  0  0  0  0  0
   15.5277   13.0889    0.0000 H   0  0  0  0  0  0  0  0  0  0  0  0
   13.9413   11.4004    0.0000 H   0  0  0  0  0  0  0  0  0  0  0  0
   13.5454   10.7086    0.0000 H   0  0  0  0  0  0  0  0  0  0  0  0
   16.9894   10.9958    0.0000 H   0  0  0  0  0  0  0  0  0  0  0  0
   17.1573   11.8081    0.0000 H   0  0  0  0  0  0  0  0  0  0  0  0
   13.5484    9.9240    0.0000 H   0  0  0  0  0  0  0  0  0  0  0  0
   13.9496    9.2352    0.0000 H   0  0  0  0  0  0  0  0  0  0  0  0
   16.8023   12.5955    0.0000 H   0  0  0  0  0  0  0  0  0  0  0  0
   16.0823   13.0074    0.0000 H   0  0  0  0  0  0  0  0  0  0  0  0
   17.4154    9.2230    0.0000 H   0  0  0  0  0  0  0  0  0  0  0  0
   17.0057    9.9081    0.0000 H   0  0  0  0  0  0  0  0  0  0  0  0
   14.3641   12.4463    0.0000 H   0  0  0  0  0  0  0  0  0  0  0  0
   14.4596   12.3568    0.0000 H   0  0  0  0  0  0  0  0  0  0  0  0
   13.6136   12.1266    0.0000 H   0  0  0  0  0  0  0  0  0  0  0  0
   13.8438   11.2805    0.0000 H   0  0  0  0  0  0  0  0  0  0  0  0
   13.8631    8.3422    0.0000 H   0  0  0  0  0  0  0  0  0  0  0  0
   13.4534    7.6571    0.0000 H   0  0  0  0  0  0  0  0  0  0  0  0
   17.3547    7.9746    0.0000 H   0  0  0  0  0  0  0  0  0  0  0  0
   14.4633    9.3195    0.0000 H   0  0  0  0  0  0  0  0  0  0  0  0
   13.6155    9.0958    0.0000 H   0  0  0  0  0  0  0  0  0  0  0  0
   13.8391    8.2480    0.0000 H   0  0  0  0  0  0  0  0  0  0  0  0
   16.1437    6.0900    0.0000 H   0  0  0  0  0  0  0  0  0  0  0  0
   16.5375    6.7844    0.0000 H   0  0  0  0  0  0  0  0  0  0  0  0
   13.4433    6.7844    0.0000 H   0  0  0  0  0  0  0  0  0  0  0  0
   13.8371    6.0900    0.0000 H   0  0  0  0  0  0  0  0  0  0  0  0
   15.4094   13.6981    0.0000 H   0  0  0  0  0  0  0  0  0  0  0  0
   15.2421   14.4774    0.0000 H   0  0  0  0  0  0  0  0  0  0  0  0
   15.5279    5.8161    0.0000 H   0  0  0  0  0  0  0  0  0  0  0  0
   13.4465   13.4325    0.0000 H   0  0  0  0  0  0  0  0  0  0  0  0
   12.9705   12.6961    0.0000 H   0  0  0  0  0  0  0  0  0  0  0  0
   13.7069   12.2202    0.0000 H   0  0  0  0  0  0  0  0  0  0  0  0
   13.6426   15.0197    0.0000 H   0  0  0  0  0  0  0  0  0  0  0  0
   13.8100   14.2404    0.0000 H   0  0  0  0  0  0  0  0  0  0  0  0
   14.9135   15.2216    0.0000 H   0  0  0  0  0  0  0  0  0  0  0  0
   14.1244    5.2451    0.0000 H   0  0  0  0  0  0  0  0  0  0  0  0
   13.6366   15.8331    0.0000 H   0  0  0  0  0  0  0  0  0  0  0  0
   15.4983   15.2719    0.0000 H   0  0  0  0  0  0  0  0  0  0  0  0
   16.0895   15.8065    0.0000 H   0  0  0  0  0  0  0  0  0  0  0  0
   14.1244    3.0051    0.0000 H   0  0  0  0  0  0  0  0  0  0  0  0
   14.7240   17.1846    0.0000 H   0  0  0  0  0  0  0  0  0  0  0  0
   14.3243   17.9650    0.0000 H   0  0  0  0  0  0  0  0  0  0  0  0
   13.5439   17.5652    0.0000 H   0  0  0  0  0  0  0  0  0  0  0  0
   12.7191   16.8194    0.0000 H   0  0  0  0  0  0  0  0  0  0  0  0
   12.2431   16.0830    0.0000 H   0  0  0  0  0  0  0  0  0  0  0  0
   12.9795   15.6070    0.0000 H   0  0  0  0  0  0  0  0  0  0  0  0
   12.7214    2.8151    0.0000 H   0  0  0  0  0  0  0  0  0  0  0  0
   16.3724   16.6528    0.0000 H   0  0  0  0  0  0  0  0  0  0  0  0
   15.9727   17.4332    0.0000 H   0  0  0  0  0  0  0  0  0  0  0  0
   15.1923   17.0335    0.0000 H   0  0  0  0  0  0  0  0  0  0  0  0
   12.3923    5.2451    0.0000 H   0  0  0  0  0  0  0  0  0  0  0  0
   11.8554    3.9351    0.0000 H   0  0  0  0  0  0  0  0  0  0  0  0
   14.9904    2.5051    0.0000 H   0  0  0  0  0  0  0  0  0  0  0  0
   11.9248    5.6001    0.0000 H   0  0  0  0  0  0  0  0  0  0  0  0
   11.1278    5.6001    0.0000 H   0  0  0  0  0  0  0  0  0  0  0  0
   10.9893    3.4351    0.0000 H   0  0  0  0  0  0  0  0  0  0  0  0
   10.1233    4.9351    0.0000 H   0  0  0  0  0  0  0  0  0  0  0  0
   12.6044    0.0425    0.0000 H   0  0  0  0  0  0  0  0  0  0  0  0
   13.0029    0.7328    0.0000 H   0  0  0  0  0  0  0  0  0  0  0  0
   11.3142    0.7077    0.0000 H   0  0  0  0  0  0  0  0  0  0  0  0
   10.9157    0.0174    0.0000 H   0  0  0  0  0  0  0  0  0  0  0  0
   11.7383   -1.4575    0.0000 H   0  0  0  0  0  0  0  0  0  0  0  0
   12.1369   -0.7672    0.0000 H   0  0  0  0  0  0  0  0  0  0  0  0
   10.4482   -0.7923    0.0000 H   0  0  0  0  0  0  0  0  0  0  0  0
   10.0497   -1.4826    0.0000 H   0  0  0  0  0  0  0  0  0  0  0  0
   10.8723   -2.9575    0.0000 H   0  0  0  0  0  0  0  0  0  0  0  0
   11.2708   -2.2672    0.0000 H   0  0  0  0  0  0  0  0  0  0  0  0
    9.5822   -2.2923    0.0000 H   0  0  0  0  0  0  0  0  0  0  0  0
    9.1836   -2.9825    0.0000 H   0  0  0  0  0  0  0  0  0  0  0  0
   10.0063   -4.4575    0.0000 H   0  0  0  0  0  0  0  0  0  0  0  0
   10.4048   -3.7672    0.0000 H   0  0  0  0  0  0  0  0  0  0  0  0
    8.7162   -3.7923    0.0000 H   0  0  0  0  0  0  0  0  0  0  0  0
    8.3176   -4.4826    0.0000 H   0  0  0  0  0  0  0  0  0  0  0  0
    9.1403   -5.9575    0.0000 H   0  0  0  0  0  0  0  0  0  0  0  0
    9.5388   -5.2672    0.0000 H   0  0  0  0  0  0  0  0  0  0  0  0
    7.8501   -5.2923    0.0000 H   0  0  0  0  0  0  0  0  0  0  0  0
    7.4516   -5.9826    0.0000 H   0  0  0  0  0  0  0  0  0  0  0  0
    8.2742   -7.4575    0.0000 H   0  0  0  0  0  0  0  0  0  0  0  0
    8.6728   -6.7672    0.0000 H   0  0  0  0  0  0  0  0  0  0  0  0
    6.9841   -6.7923    0.0000 H   0  0  0  0  0  0  0  0  0  0  0  0
    6.5856   -7.4826    0.0000 H   0  0  0  0  0  0  0  0  0  0  0  0
    7.4082   -8.9575    0.0000 H   0  0  0  0  0  0  0  0  0  0  0  0
    7.8067   -8.2672    0.0000 H   0  0  0  0  0  0  0  0  0  0  0  0
    6.1181   -8.2923    0.0000 H   0  0  0  0  0  0  0  0  0  0  0  0
    5.7196   -8.9826    0.0000 H   0  0  0  0  0  0  0  0  0  0  0  0
    6.5422  -10.4575    0.0000 H   0  0  0  0  0  0  0  0  0  0  0  0
    6.9407   -9.7672    0.0000 H   0  0  0  0  0  0  0  0  0  0  0  0
    5.2520   -9.7923    0.0000 H   0  0  0  0  0  0  0  0  0  0  0  0
    4.8535  -10.4826    0.0000 H   0  0  0  0  0  0  0  0  0  0  0  0
    5.6762  -11.9575    0.0000 H   0  0  0  0  0  0  0  0  0  0  0  0
    6.0747  -11.2672    0.0000 H   0  0  0  0  0  0  0  0  0  0  0  0
    4.3860  -11.2923    0.0000 H   0  0  0  0  0  0  0  0  0  0  0  0
    3.9875  -11.9826    0.0000 H   0  0  0  0  0  0  0  0  0  0  0  0
    4.8101  -13.4575    0.0000 H   0  0  0  0  0  0  0  0  0  0  0  0
    5.2087  -12.7672    0.0000 H   0  0  0  0  0  0  0  0  0  0  0  0
    3.5200  -12.7923    0.0000 H   0  0  0  0  0  0  0  0  0  0  0  0
    3.1215  -13.4826    0.0000 H   0  0  0  0  0  0  0  0  0  0  0  0
    3.9441  -14.9575    0.0000 H   0  0  0  0  0  0  0  0  0  0  0  0
    4.3426  -14.2672    0.0000 H   0  0  0  0  0  0  0  0  0  0  0  0
    2.6540  -14.2923    0.0000 H   0  0  0  0  0  0  0  0  0  0  0  0
    2.2554  -14.9826    0.0000 H   0  0  0  0  0  0  0  0  0  0  0  0
    3.0781  -16.4575    0.0000 H   0  0  0  0  0  0  0  0  0  0  0  0
    3.4766  -15.7672    0.0000 H   0  0  0  0  0  0  0  0  0  0  0  0
    1.7880  -15.7923    0.0000 H   0  0  0  0  0  0  0  0  0  0  0  0
    1.3894  -16.4826    0.0000 H   0  0  0  0  0  0  0  0  0  0  0  0
    1.3800  -17.3749    0.0000 H   0  0  0  0  0  0  0  0  0  0  0  0
    2.0000  -17.9949    0.0000 H   0  0  0  0  0  0  0  0  0  0  0  0
    2.6200  -17.3749    0.0000 H   0  0  0  0  0  0  0  0  0  0  0  0
 28  1  1  1  0  0  0
 32  1  1  1  0  0  0
  2 32  1  0  0  0  0
  2 40  1  0  0  0  0
 35  3  1  6  0  0  0
  3123  1  0  0  0  0
 38  4  1  1  0  0  0
  4 43  1  0  0  0  0
 41  5  1  6  0  0  0
  5126  1  0  0  0  0
  6 42  1  0  0  0  0
  6127  1  0  0  0  0
  7 43  2  0  0  0  0
  8  9  1  0  0  0  0
  8 12  1  0  0  0  0
  8 13  1  0  0  0  0
  8 20  1  1  0  0  0
  9 10  1  0  0  0  0
  9 15  1  0  0  0  0
  9 69  1  6  0  0  0
 10 11  1  0  0  0  0
 10 18  1  0  0  0  0
 10 70  1  1  0  0  0
 11 14  1  0  0  0  0
 11 16  1  0  0  0  0
 11 71  1  6  0  0  0
 12 17  1  0  0  0  0
 12 19  1  0  0  0  0
 12 72  1  6  0  0  0
 13 16  1  0  0  0  0
 13 73  1  0  0  0  0
 13 74  1  0  0  0  0
 14 21  1  0  0  0  0
 14 22  1  0  0  0  0
 14 24  1  1  0  0  0
 15 17  1  0  0  0  0
 15 75  1  0  0  0  0
 15 76  1  0  0  0  0
 16 77  1  0  0  0  0
 16 78  1  0  0  0  0
 17 79  1  0  0  0  0
 17 80  1  0  0  0  0
 18 23  1  0  0  0  0
 18 81  1  0  0  0  0
 18 82  1  0  0  0  0
 19 27  1  0  0  0  0
 19 29  1  6  0  0  0
 19 83  1  0  0  0  0
 20 84  1  0  0  0  0
 20 85  1  0  0  0  0
 20 86  1  0  0  0  0
 21 23  2  0  0  0  0
 21 25  1  0  0  0  0
 22 26  1  0  0  0  0
 22 87  1  0  0  0  0
 22 88  1  0  0  0  0
 23 89  1  0  0  0  0
 24 90  1  0  0  0  0
 24 91  1  0  0  0  0
 24 92  1  0  0  0  0
 25 28  1  0  0  0  0
 25 93  1  0  0  0  0
 25 94  1  0  0  0  0
 26 28  1  0  0  0  0
 26 95  1  0  0  0  0
 26 96  1  0  0  0  0
 27 30  1  0  0  0  0
 27 97  1  0  0  0  0
 27 98  1  0  0  0  0
 28 99  1  0  0  0  0
 29100  1  0  0  0  0
 29101  1  0  0  0  0
 29102  1  0  0  0  0
 31 30  1  6  0  0  0
 30103  1  0  0  0  0
 30104  1  0  0  0  0
 31 33  1  0  0  0  0
 31 34  1  0  0  0  0
 31105  1  0  0  0  0
 32 35  1  0  0  0  0
 32106  1  0  0  0  0
 33 36  1  0  0  0  0
 33 37  1  0  0  0  0
 33107  1  0  0  0  0
 34 39  1  0  0  0  0
 34108  1  0  0  0  0
 34109  1  0  0  0  0
 35 38  1  0  0  0  0
 35110  1  0  0  0  0
 36111  1  0  0  0  0
 36112  1  0  0  0  0
 36113  1  0  0  0  0
 37114  1  0  0  0  0
 37115  1  0  0  0  0
 37116  1  0  0  0  0
 38 41  1  0  0  0  0
 38117  1  0  0  0  0
 39118  1  0  0  0  0
 39119  1  0  0  0  0
 39120  1  0  0  0  0
 40 41  1  0  0  0  0
 40 42  1  1  0  0  0
 40121  1  0  0  0  0
 41122  1  0  0  0  0
 42124  1  0  0  0  0
 42125  1  0  0  0  0
 43 44  1  0  0  0  0
 44 45  1  0  0  0  0
 44128  1  0  0  0  0
 44129  1  0  0  0  0
 45 46  1  0  0  0  0
 45130  1  0  0  0  0
 45131  1  0  0  0  0
 46 47  1  0  0  0  0
 46132  1  0  0  0  0
 46133  1  0  0  0  0
 47 48  1  0  0  0  0
 47134  1  0  0  0  0
 47135  1  0  0  0  0
 48 49  1  0  0  0  0
 48136  1  0  0  0  0
 48137  1  0  0  0  0
 49 50  1  0  0  0  0
 49138  1  0  0  0  0
 49139  1  0  0  0  0
 50 51  1  0  0  0  0
 50140  1  0  0  0  0
 50141  1  0  0  0  0
 51 52  1  0  0  0  0
 51142  1  0  0  0  0
 51143  1  0  0  0  0
 52 53  1  0  0  0  0
 52144  1  0  0  0  0
 52145  1  0  0  0  0
 53 54  1  0  0  0  0
 53146  1  0  0  0  0
 53147  1  0  0  0  0
 54 55  1  0  0  0  0
 54148  1  0  0  0  0
 54149  1  0  0  0  0
 55 56  1  0  0  0  0
 55150  1  0  0  0  0
 55151  1  0  0  0  0
 56 57  1  0  0  0  0
 56152  1  0  0  0  0
 56153  1  0  0  0  0
 57 58  1  0  0  0  0
 57154  1  0  0  0  0
 57155  1  0  0  0  0
 58 59  1  0  0  0  0
 58156  1  0  0  0  0
 58157  1  0  0  0  0
 59 60  1  0  0  0  0
 59158  1  0  0  0  0
 59159  1  0  0  0  0
 60 61  1  0  0  0  0
 60160  1  0  0  0  0
 60161  1  0  0  0  0
 61 62  1  0  0  0  0
 61162  1  0  0  0  0
 61163  1  0  0  0  0
 62 63  1  0  0  0  0
 62164  1  0  0  0  0
 62165  1  0  0  0  0
 63 64  1  0  0  0  0
 63166  1  0  0  0  0
 63167  1  0  0  0  0
 64 65  1  0  0  0  0
 64168  1  0  0  0  0
 64169  1  0  0  0  0
 65 66  1  0  0  0  0
 65170  1  0  0  0  0
 65171  1  0  0  0  0
 66 67  1  0  0  0  0
 66172  1  0  0  0  0
 66173  1  0  0  0  0
 67 68  1  0  0  0  0
 67174  1  0  0  0  0
 67175  1  0  0  0  0
 68176  1  0  0  0  0
 68177  1  0  0  0  0
 68178  1  0  0  0  0
M  END
> <PUBCHEM_COMPOUND_CID>
70697783

> <PUBCHEM_COMPOUND_CANONICALIZED>
1

> <PUBCHEM_CACTVS_COMPLEXITY>
1410

> <PUBCHEM_CACTVS_HBOND_ACCEPTOR>
7

> <PUBCHEM_CACTVS_HBOND_DONOR>
3

> <PUBCHEM_CACTVS_ROTATABLE_BOND>
35

> <PUBCHEM_CACTVS_SUBSKEYS>
AAADcfB8OAAAAAAAAAAAAAAAAAAAAYAAAAA0YIEAAAAAAGCAAAAAGgAACAAADxSwgAMCCAAABgCIAiDSCAAAAAAgAAAACAEAAAgREBIAAQAiQAAFwAAPAAPI6PyPgAAAAAAAAADAAAQAACAAAQAACAAAAA==

> <PUBCHEM_IUPAC_OPENEYE_NAME>
[(2R,3R,4S,5R,6R)-2-[[(3S,8S,9S,10R,13R,14S,17R)-17-[(1R,4R)-4-ethyl-1,5-dimethyl-hexyl]-10,13-dimethyl-2,3,4,7,8,9,11,12,14,15,16,17-dodecahydro-1H-cyclopenta[a]phenanthren-3-yl]oxy]-3,5-dihydroxy-6-(hydroxymethyl)tetrahydropyran-4-yl] hexacosanoate

> <PUBCHEM_IUPAC_CAS_NAME>
hexacosanoic acid [(2R,3R,4S,5R,6R)-2-[[(3S,8S,9S,10R,13R,14S,17R)-17-[(2R,5R)-5-ethyl-6-methylheptan-2-yl]-10,13-dimethyl-2,3,4,7,8,9,11,12,14,15,16,17-dodecahydro-1H-cyclopenta[a]phenanthren-3-yl]oxy]-3,5-dihydroxy-6-(hydroxymethyl)-4-oxanyl] ester

> <PUBCHEM_IUPAC_NAME_MARKUP>
[(2<I>R</I>,3<I>R</I>,4<I>S</I>,5<I>R</I>,6<I>R</I>)-2-[[(3<I>S</I>,8<I>S</I>,9<I>S</I>,10<I>R</I>,13<I>R</I>,14<I>S</I>,17<I>R</I>)-17-[(2<I>R</I>,5<I>R</I>)-5-ethyl-6-methylheptan-2-yl]-10,13-dimethyl-2,3,4,7,8,9,11,12,14,15,16,17-dodecahydro-1<I>H</I>-cyclopenta[a]phenanthren-3-yl]oxy]-3,5-dihydroxy-6-(hydroxymethyl)oxan-4-yl] hexacosanoate

> <PUBCHEM_IUPAC_NAME>
[(2R,3R,4S,5R,6R)-2-[[(3S,8S,9S,10R,13R,14S,17R)-17-[(2R,5R)-5-ethyl-6-methylheptan-2-yl]-10,13-dimethyl-2,3,4,7,8,9,11,12,14,15,16,17-dodecahydro-1H-cyclopenta[a]phenanthren-3-yl]oxy]-3,5-dihydroxy-6-(hydroxymethyl)oxan-4-yl] hexacosanoate

> <PUBCHEM_IUPAC_SYSTEMATIC_NAME>
[(2R,3R,4S,5R,6R)-2-[[(3S,8S,9S,10R,13R,14S,17R)-17-[(2R,5R)-5-ethyl-6-methyl-heptan-2-yl]-10,13-dimethyl-2,3,4,7,8,9,11,12,14,15,16,17-dodecahydro-1H-cyclopenta[a]phenanthren-3-yl]oxy]-6-(hydroxymethyl)-3,5-bis(oxidanyl)oxan-4-yl] hexacosanoate

> <PUBCHEM_IUPAC_TRADITIONAL_NAME>
cerotic acid [(2R,3R,4S,5R,6R)-2-[[(3S,8S,9S,10R,13R,14S,17R)-17-[(1R,4R)-4-ethyl-1,5-dimethyl-hexyl]-10,13-dimethyl-2,3,4,7,8,9,11,12,14,15,16,17-dodecahydro-1H-cyclopenta[a]phenanthren-3-yl]oxy]-3,5-dihydroxy-6-methylol-tetrahydropyran-4-yl] ester

> <PUBCHEM_IUPAC_INCHI>
InChI=1S/C61H110O7/c1-8-10-11-12-13-14-15-16-17-18-19-20-21-22-23-24-25-26-27-28-29-30-31-32-55(63)68-58-56(64)54(44-62)67-59(57(58)65)66-49-39-41-60(6)48(43-49)35-36-50-52-38-37-51(61(52,7)42-40-53(50)60)46(5)33-34-47(9-2)45(3)4/h35,45-47,49-54,56-59,62,64-65H,8-34,36-44H2,1-7H3/t46-,47-,49+,50+,51-,52+,53+,54-,56-,57-,58+,59-,60+,61-/m1/s1

> <PUBCHEM_IUPAC_INCHIKEY>
ZWSXNFVBGCVMJK-LWBJBUDZSA-N

> <PUBCHEM_XLOGP3_AA>
21.1

> <PUBCHEM_EXACT_MASS>
954.825156

> <PUBCHEM_MOLECULAR_FORMULA>
C61H110O7

> <PUBCHEM_MOLECULAR_WEIGHT>
955.5

> <PUBCHEM_OPENEYE_CAN_SMILES>
CCCCCCCCCCCCCCCCCCCCCCCCCC(=O)OC1C(C(OC(C1O)OC2CCC3(C4CCC5(C(C4CC=C3C2)CCC5C(C)CCC(CC)C(C)C)C)C)CO)O

> <PUBCHEM_OPENEYE_ISO_SMILES>
CCCCCCCCCCCCCCCCCCCCCCCCCC(=O)O[C@H]1[C@@H]([C@H](O[C@H]([C@@H]1O)O[C@H]2CC[C@@]3([C@H]4CC[C@]5([C@H]([C@@H]4CC=C3C2)CC[C@@H]5[C@H](C)CC[C@@H](CC)C(C)C)C)C)CO)O

> <PUBCHEM_CACTVS_TPSA>
105

> <PUBCHEM_MONOISOTOPIC_WEIGHT>
954.825156

> <PUBCHEM_TOTAL_CHARGE>
0

> <PUBCHEM_HEAVY_ATOM_COUNT>
68

> <PUBCHEM_ATOM_DEF_STEREO_COUNT>
14

> <PUBCHEM_ATOM_UDEF_STEREO_COUNT>
0

> <PUBCHEM_BOND_DEF_STEREO_COUNT>
0

> <PUBCHEM_BOND_UDEF_STEREO_COUNT>
0

> <PUBCHEM_ISOTOPIC_ATOM_COUNT>
0

> <PUBCHEM_COMPONENT_COUNT>
1

> <PUBCHEM_CACTVS_TAUTO_COUNT>
-1

> <PUBCHEM_COORDINATE_TYPE>
1
5
255

> <PUBCHEM_BONDANNOTATIONS>
28  1  5
32  1  5
10  70  5
11  71  6
12  72  6
14  24  5
19  29  6
35  3  6
31  30  6
38  4  5
40  42  5
41  5  6
8  20  5
9  69  6

$$$$
